 Entering Gaussian System, Link 0=g16
 Input=input.com
 Output=input.log
 Initial command:
 /home/matma/Programs/gaussian/G16_x86_SSE4/tar/g16/l1.exe "/scratch-data/gaussian/Gau-31524.inp" -scrdir="/scratch-data/gaussian/"
 Entering Link 1 = /home/matma/Programs/gaussian/G16_x86_SSE4/tar/g16/l1.exe PID=     31526.
  
 Copyright (c) 1988-2017, Gaussian, Inc.  All Rights Reserved.
  
 This is part of the Gaussian(R) 16 program.  It is based on
 the Gaussian(R) 09 system (copyright 2009, Gaussian, Inc.),
 the Gaussian(R) 03 system (copyright 2003, Gaussian, Inc.),
 the Gaussian(R) 98 system (copyright 1998, Gaussian, Inc.),
 the Gaussian(R) 94 system (copyright 1995, Gaussian, Inc.),
 the Gaussian 92(TM) system (copyright 1992, Gaussian, Inc.),
 the Gaussian 90(TM) system (copyright 1990, Gaussian, Inc.),
 the Gaussian 88(TM) system (copyright 1988, Gaussian, Inc.),
 the Gaussian 86(TM) system (copyright 1986, Carnegie Mellon
 University), and the Gaussian 82(TM) system (copyright 1983,
 Carnegie Mellon University). Gaussian is a federally registered
 trademark of Gaussian, Inc.
  
 This software contains proprietary and confidential information,
 including trade secrets, belonging to Gaussian, Inc.
  
 This software is provided under written license and may be
 used, copied, transmitted, or stored only in accord with that
 written license.
  
 The following legend is applicable only to US Government
 contracts under FAR:
  
                    RESTRICTED RIGHTS LEGEND
  
 Use, reproduction and disclosure by the US Government is
 subject to restrictions as set forth in subparagraphs (a)
 and (c) of the Commercial Computer Software - Restricted
 Rights clause in FAR 52.227-19.
  
 Gaussian, Inc.
 340 Quinnipiac St., Bldg. 40, Wallingford CT 06492
  
  
 ---------------------------------------------------------------
 Warning -- This program may not be used in any manner that
 competes with the business of Gaussian, Inc. or will provide
 assistance to any competitor of Gaussian, Inc.  The licensee
 of this program is prohibited from giving any competitor of
 Gaussian, Inc. access to this program.  By using this program,
 the user acknowledges that Gaussian, Inc. is engaged in the
 business of creating and licensing software in the field of
 computational chemistry and represents and warrants to the
 licensee that it is not a competitor of Gaussian, Inc. and that
 it will not use this program in any manner prohibited above.
 ---------------------------------------------------------------
  

 Cite this work as:
 Gaussian 16, Revision B.01,
 M. J. Frisch, G. W. Trucks, H. B. Schlegel, G. E. Scuseria, 
 M. A. Robb, J. R. Cheeseman, G. Scalmani, V. Barone, 
 G. A. Petersson, H. Nakatsuji, X. Li, M. Caricato, A. V. Marenich, 
 J. Bloino, B. G. Janesko, R. Gomperts, B. Mennucci, H. P. Hratchian, 
 J. V. Ortiz, A. F. Izmaylov, J. L. Sonnenberg, D. Williams-Young, 
 F. Ding, F. Lipparini, F. Egidi, J. Goings, B. Peng, A. Petrone, 
 T. Henderson, D. Ranasinghe, V. G. Zakrzewski, J. Gao, N. Rega, 
 G. Zheng, W. Liang, M. Hada, M. Ehara, K. Toyota, R. Fukuda, 
 J. Hasegawa, M. Ishida, T. Nakajima, Y. Honda, O. Kitao, H. Nakai, 
 T. Vreven, K. Throssell, J. A. Montgomery, Jr., J. E. Peralta, 
 F. Ogliaro, M. J. Bearpark, J. J. Heyd, E. N. Brothers, K. N. Kudin, 
 V. N. Staroverov, T. A. Keith, R. Kobayashi, J. Normand, 
 K. Raghavachari, A. P. Rendell, J. C. Burant, S. S. Iyengar, 
 J. Tomasi, M. Cossi, J. M. Millam, M. Klene, C. Adamo, R. Cammi, 
 J. W. Ochterski, R. L. Martin, K. Morokuma, O. Farkas, 
 J. B. Foresman, and D. J. Fox, Gaussian, Inc., Wallingford CT, 2016.
 
 ******************************************
 Gaussian 16:  ES64L-G16RevB.01 20-Dec-2017
                22-Jun-2021 
 ******************************************
 %nproc=12
 Will use up to   12 processors via shared memory.
 %mem=16GB
 --------------------------------------
 #P pm6 opt=loose freq int=(grid=99590)
 --------------------------------------
 1/7=-1,18=20,19=15,26=1,38=1/1,3;
 2/9=110,12=2,17=6,18=5,40=1/2;
 3/5=2,25=1,41=3900000,71=1,75=99590/1,2,3;
 4/35=1/1;
 5/5=2,35=1,38=5/2;
 6/7=2,8=2,9=2,10=2,28=1/1;
 7//1,2,3,16;
 1/7=-1,18=20,19=15,26=1/3(2);
 2/9=110/2;
 99//99;
 2/9=110/2;
 3/5=2,25=1,41=3900000,71=1,75=99590,135=20/1,2,3;
 4/5=5,16=3,35=1/1;
 5/5=2,35=1,38=5/2;
 7//1,2,3,16;
 1/7=-1,18=20,19=15,26=1/3(-5);
 2/9=110/2;
 6/7=2,8=2,9=2,10=2,19=2,28=1/1;
 99/9=1/99;
 Leave Link    1 at Tue Jun 22 14:17:16 2021, MaxMem=  2147483648 cpu:               0.3 elap:               0.0
 (Enter /home/matma/Programs/gaussian/G16_x86_SSE4/tar/g16/l101.exe)
 ----------
 initial-00
 ----------
 Symbolic Z-matrix:
 Charge =  0 Multiplicity = 1
 O                     3.185    -0.561     0.901 
 C                     3.472    -0.369     2.307 
 C                     3.308    -1.694     3.082 
 O                     4.251    -2.66      2.588 
 C                     1.857    -2.209     2.918 
 C                     0.776    -1.089     3.175 
 O                     1.087     0.166     2.541 
 C                     2.421     0.615     2.871 
 C                     2.579     2.025     2.272 
 O                     3.939     2.42      2.508 
 O                    -3.013    -2.32      4.275 
 C                    -2.287    -3.198     3.381 
 C                    -0.756    -2.983     3.226 
 C                    -0.183    -4.084     2.301 
 C                    -0.569    -5.504     2.794 
 O                    -1.983    -5.626     2.98 
 C                    -2.553    -4.661     3.871 
 C                    -4.042    -5.035     3.846 
 O                    -4.531    -4.96      2.484 
 O                    -0.264    -6.409     1.75 
 O                     1.232    -3.881     2.268 
 O                    -0.506    -1.709     2.617 
 O                     1.707    -3.3       3.836 
 H                     4.49      0.038     2.438 
 H                     3.489    -1.489     4.157 
 H                     4.012    -3.498     3.078 
 H                     1.761    -2.56      1.876 
 H                     0.693    -0.944     4.275 
 H                     2.545     0.672     3.97 
 H                     2.346     1.98      1.19 
 H                     1.849     2.698     2.757 
 H                     3.953     3.408     2.377 
 H                    -2.72     -3.098     2.369 
 H                    -0.272    -3.064     4.222 
 H                    -0.636    -3.954     1.296 
 H                    -0.024    -5.739     3.737 
 H                    -2.163    -4.762     4.902 
 H                    -4.162    -6.081     4.168 
 H                    -4.613    -4.383     4.525 
 H                    -4.71     -3.993     2.313 
 H                     1.572    -4.516     1.577 
 H                    -3.93     -1.865     3.745 
 H                     0.933    -3.819     3.474 
 H                    -0.26     -7.322     2.049 
 H                     3.844    -1.106     0.452 
 
 Add virtual bond connecting atoms H42        and O11        Dist= 2.18D+00.
 ITRead=  0  0  0  0  0  0  0  0  0  0  0  0  0  0  0  0  0  0  0  0
 ITRead=  0  0  0  0  0  0  0  0  0  0  0  0  0  0  0  0  0  0  0  0
 ITRead=  0  0  0  0  0
 MicOpt= -1 -1 -1 -1 -1 -1 -1 -1 -1 -1 -1 -1 -1 -1 -1 -1 -1 -1 -1 -1
 MicOpt= -1 -1 -1 -1 -1 -1 -1 -1 -1 -1 -1 -1 -1 -1 -1 -1 -1 -1 -1 -1
 MicOpt= -1 -1 -1 -1 -1
 NAtoms=     45 NQM=       45 NQMF=       0 NMMI=      0 NMMIF=      0
                NMic=       0 NMicF=      0.
                    Isotopes and Nuclear Properties:
 (Nuclear quadrupole moments (NQMom) in fm**2, nuclear magnetic moments (NMagM)
  in nuclear magnetons)

  Atom         1           2           3           4           5           6           7           8           9          10
 IAtWgt=          16          12          12          16          12          12          16          12          12          16
 AtmWgt=  15.9949146  12.0000000  12.0000000  15.9949146  12.0000000  12.0000000  15.9949146  12.0000000  12.0000000  15.9949146
 NucSpn=           0           0           0           0           0           0           0           0           0           0
 AtZEff=  -0.0000000  -0.0000000  -0.0000000  -0.0000000  -0.0000000  -0.0000000  -0.0000000  -0.0000000  -0.0000000  -0.0000000
 NQMom=    0.0000000   0.0000000   0.0000000   0.0000000   0.0000000   0.0000000   0.0000000   0.0000000   0.0000000   0.0000000
 NMagM=    0.0000000   0.0000000   0.0000000   0.0000000   0.0000000   0.0000000   0.0000000   0.0000000   0.0000000   0.0000000
 AtZNuc=   8.0000000   6.0000000   6.0000000   8.0000000   6.0000000   6.0000000   8.0000000   6.0000000   6.0000000   8.0000000

  Atom        11          12          13          14          15          16          17          18          19          20
 IAtWgt=          16          12          12          12          12          16          12          12          16          16
 AtmWgt=  15.9949146  12.0000000  12.0000000  12.0000000  12.0000000  15.9949146  12.0000000  12.0000000  15.9949146  15.9949146
 NucSpn=           0           0           0           0           0           0           0           0           0           0
 AtZEff=  -0.0000000  -0.0000000  -0.0000000  -0.0000000  -0.0000000  -0.0000000  -0.0000000  -0.0000000  -0.0000000  -0.0000000
 NQMom=    0.0000000   0.0000000   0.0000000   0.0000000   0.0000000   0.0000000   0.0000000   0.0000000   0.0000000   0.0000000
 NMagM=    0.0000000   0.0000000   0.0000000   0.0000000   0.0000000   0.0000000   0.0000000   0.0000000   0.0000000   0.0000000
 AtZNuc=   8.0000000   6.0000000   6.0000000   6.0000000   6.0000000   8.0000000   6.0000000   6.0000000   8.0000000   8.0000000

  Atom        21          22          23          24          25          26          27          28          29          30
 IAtWgt=          16          16          16           1           1           1           1           1           1           1
 AtmWgt=  15.9949146  15.9949146  15.9949146   1.0078250   1.0078250   1.0078250   1.0078250   1.0078250   1.0078250   1.0078250
 NucSpn=           0           0           0           1           1           1           1           1           1           1
 AtZEff=  -0.0000000  -0.0000000  -0.0000000  -0.0000000  -0.0000000  -0.0000000  -0.0000000  -0.0000000  -0.0000000  -0.0000000
 NQMom=    0.0000000   0.0000000   0.0000000   0.0000000   0.0000000   0.0000000   0.0000000   0.0000000   0.0000000   0.0000000
 NMagM=    0.0000000   0.0000000   0.0000000   2.7928460   2.7928460   2.7928460   2.7928460   2.7928460   2.7928460   2.7928460
 AtZNuc=   8.0000000   8.0000000   8.0000000   1.0000000   1.0000000   1.0000000   1.0000000   1.0000000   1.0000000   1.0000000

  Atom        31          32          33          34          35          36          37          38          39          40
 IAtWgt=           1           1           1           1           1           1           1           1           1           1
 AtmWgt=   1.0078250   1.0078250   1.0078250   1.0078250   1.0078250   1.0078250   1.0078250   1.0078250   1.0078250   1.0078250
 NucSpn=           1           1           1           1           1           1           1           1           1           1
 AtZEff=  -0.0000000  -0.0000000  -0.0000000  -0.0000000  -0.0000000  -0.0000000  -0.0000000  -0.0000000  -0.0000000  -0.0000000
 NQMom=    0.0000000   0.0000000   0.0000000   0.0000000   0.0000000   0.0000000   0.0000000   0.0000000   0.0000000   0.0000000
 NMagM=    2.7928460   2.7928460   2.7928460   2.7928460   2.7928460   2.7928460   2.7928460   2.7928460   2.7928460   2.7928460
 AtZNuc=   1.0000000   1.0000000   1.0000000   1.0000000   1.0000000   1.0000000   1.0000000   1.0000000   1.0000000   1.0000000

  Atom        41          42          43          44          45
 IAtWgt=           1           1           1           1           1
 AtmWgt=   1.0078250   1.0078250   1.0078250   1.0078250   1.0078250
 NucSpn=           1           1           1           1           1
 AtZEff=  -0.0000000  -0.0000000  -0.0000000  -0.0000000  -0.0000000
 NQMom=    0.0000000   0.0000000   0.0000000   0.0000000   0.0000000
 NMagM=    2.7928460   2.7928460   2.7928460   2.7928460   2.7928460
 AtZNuc=   1.0000000   1.0000000   1.0000000   1.0000000   1.0000000
 Leave Link  101 at Tue Jun 22 14:17:16 2021, MaxMem=  2147483648 cpu:               2.9 elap:               0.2
 (Enter /home/matma/Programs/gaussian/G16_x86_SSE4/tar/g16/l103.exe)

 GradGradGradGradGradGradGradGradGradGradGradGradGradGradGradGradGradGrad
 Berny optimization.
 Initialization pass.
                           ----------------------------
                           !    Initial Parameters    !
                           ! (Angstroms and Degrees)  !
 --------------------------                            --------------------------
 ! Name  Definition              Value          Derivative Info.                !
 --------------------------------------------------------------------------------
 ! R1    R(1,2)                  1.4478         estimate D2E/DX2                !
 ! R2    R(1,45)                 0.9659         estimate D2E/DX2                !
 ! R3    R(2,3)                  1.5437         estimate D2E/DX2                !
 ! R4    R(2,8)                  1.5463         estimate D2E/DX2                !
 ! R5    R(2,24)                 1.1041         estimate D2E/DX2                !
 ! R6    R(3,4)                  1.4375         estimate D2E/DX2                !
 ! R7    R(3,5)                  1.5484         estimate D2E/DX2                !
 ! R8    R(3,25)                 1.1092         estimate D2E/DX2                !
 ! R9    R(4,26)                 0.9997         estimate D2E/DX2                !
 ! R10   R(5,6)                  1.5777         estimate D2E/DX2                !
 ! R11   R(5,23)                 1.4337         estimate D2E/DX2                !
 ! R12   R(5,27)                 1.1037         estimate D2E/DX2                !
 ! R13   R(6,7)                  1.44           estimate D2E/DX2                !
 ! R14   R(6,22)                 1.5295         estimate D2E/DX2                !
 ! R15   R(6,28)                 1.1126         estimate D2E/DX2                !
 ! R16   R(7,8)                  1.4457         estimate D2E/DX2                !
 ! R17   R(8,9)                  1.5401         estimate D2E/DX2                !
 ! R18   R(8,29)                 1.1074         estimate D2E/DX2                !
 ! R19   R(9,10)                 1.4357         estimate D2E/DX2                !
 ! R20   R(9,30)                 1.1077         estimate D2E/DX2                !
 ! R21   R(9,31)                 1.105          estimate D2E/DX2                !
 ! R22   R(10,32)                0.9967         estimate D2E/DX2                !
 ! R23   R(11,12)                1.4482         estimate D2E/DX2                !
 ! R24   R(11,42)                1.1527         estimate D2E/DX2                !
 ! R25   R(12,13)                1.5538         estimate D2E/DX2                !
 ! R26   R(12,17)                1.5656         estimate D2E/DX2                !
 ! R27   R(12,33)                1.1053         estimate D2E/DX2                !
 ! R28   R(13,14)                1.548          estimate D2E/DX2                !
 ! R29   R(13,22)                1.434          estimate D2E/DX2                !
 ! R30   R(13,34)                1.1103         estimate D2E/DX2                !
 ! R31   R(14,15)                1.5519         estimate D2E/DX2                !
 ! R32   R(14,21)                1.4299         estimate D2E/DX2                !
 ! R33   R(14,35)                1.11           estimate D2E/DX2                !
 ! R34   R(15,16)                1.4314         estimate D2E/DX2                !
 ! R35   R(15,20)                1.4149         estimate D2E/DX2                !
 ! R36   R(15,36)                1.1142         estimate D2E/DX2                !
 ! R37   R(16,17)                1.4318         estimate D2E/DX2                !
 ! R38   R(17,18)                1.5355         estimate D2E/DX2                !
 ! R39   R(17,37)                1.1069         estimate D2E/DX2                !
 ! R40   R(18,19)                1.4491         estimate D2E/DX2                !
 ! R41   R(18,38)                1.101          estimate D2E/DX2                !
 ! R42   R(18,39)                1.101          estimate D2E/DX2                !
 ! R43   R(19,40)                0.9982         estimate D2E/DX2                !
 ! R44   R(20,44)                0.9607         estimate D2E/DX2                !
 ! R45   R(21,41)                0.9982         estimate D2E/DX2                !
 ! R46   R(23,43)                0.9997         estimate D2E/DX2                !
 ! A1    A(2,1,45)             113.0185         estimate D2E/DX2                !
 ! A2    A(1,2,3)              110.6497         estimate D2E/DX2                !
 ! A3    A(1,2,8)              107.6905         estimate D2E/DX2                !
 ! A4    A(1,2,24)             110.2961         estimate D2E/DX2                !
 ! A5    A(3,2,8)              106.9104         estimate D2E/DX2                !
 ! A6    A(3,2,24)             110.779          estimate D2E/DX2                !
 ! A7    A(8,2,24)             110.4153         estimate D2E/DX2                !
 ! A8    A(2,3,4)              109.546          estimate D2E/DX2                !
 ! A9    A(2,3,5)              109.3814         estimate D2E/DX2                !
 ! A10   A(2,3,25)             108.0936         estimate D2E/DX2                !
 ! A11   A(4,3,5)              110.7829         estimate D2E/DX2                !
 ! A12   A(4,3,25)             110.4991         estimate D2E/DX2                !
 ! A13   A(5,3,25)             108.4832         estimate D2E/DX2                !
 ! A14   A(3,4,26)             103.77           estimate D2E/DX2                !
 ! A15   A(3,5,6)              112.875          estimate D2E/DX2                !
 ! A16   A(3,5,23)             106.4587         estimate D2E/DX2                !
 ! A17   A(3,5,27)             106.6949         estimate D2E/DX2                !
 ! A18   A(6,5,23)             111.36           estimate D2E/DX2                !
 ! A19   A(6,5,27)             108.6604         estimate D2E/DX2                !
 ! A20   A(23,5,27)            110.6953         estimate D2E/DX2                !
 ! A21   A(5,6,7)              113.5154         estimate D2E/DX2                !
 ! A22   A(5,6,22)             103.1275         estimate D2E/DX2                !
 ! A23   A(5,6,28)             107.7392         estimate D2E/DX2                !
 ! A24   A(7,6,22)             111.9428         estimate D2E/DX2                !
 ! A25   A(7,6,28)             109.7434         estimate D2E/DX2                !
 ! A26   A(22,6,28)            110.5482         estimate D2E/DX2                !
 ! A27   A(6,7,8)              111.6818         estimate D2E/DX2                !
 ! A28   A(2,8,7)              110.2601         estimate D2E/DX2                !
 ! A29   A(2,8,9)              111.7786         estimate D2E/DX2                !
 ! A30   A(2,8,29)             108.5793         estimate D2E/DX2                !
 ! A31   A(7,8,9)              106.8715         estimate D2E/DX2                !
 ! A32   A(7,8,29)             110.2323         estimate D2E/DX2                !
 ! A33   A(9,8,29)             109.1089         estimate D2E/DX2                !
 ! A34   A(8,9,10)             106.5667         estimate D2E/DX2                !
 ! A35   A(8,9,30)             108.7317         estimate D2E/DX2                !
 ! A36   A(8,9,31)             108.6094         estimate D2E/DX2                !
 ! A37   A(10,9,30)            111.7763         estimate D2E/DX2                !
 ! A38   A(10,9,31)            112.7104         estimate D2E/DX2                !
 ! A39   A(30,9,31)            108.3308         estimate D2E/DX2                !
 ! A40   A(9,10,32)            105.3318         estimate D2E/DX2                !
 ! A41   A(12,11,42)           110.7489         estimate D2E/DX2                !
 ! A42   A(11,12,13)           118.1424         estimate D2E/DX2                !
 ! A43   A(11,12,17)           106.7476         estimate D2E/DX2                !
 ! A44   A(11,12,33)           108.2995         estimate D2E/DX2                !
 ! A45   A(13,12,17)           109.1433         estimate D2E/DX2                !
 ! A46   A(13,12,33)           106.389          estimate D2E/DX2                !
 ! A47   A(17,12,33)           107.7307         estimate D2E/DX2                !
 ! A48   A(12,13,14)           109.0221         estimate D2E/DX2                !
 ! A49   A(12,13,22)           109.6987         estimate D2E/DX2                !
 ! A50   A(12,13,34)           109.265          estimate D2E/DX2                !
 ! A51   A(14,13,22)           108.2753         estimate D2E/DX2                !
 ! A52   A(14,13,34)           108.8316         estimate D2E/DX2                !
 ! A53   A(22,13,34)           111.7011         estimate D2E/DX2                !
 ! A54   A(13,14,15)           111.6481         estimate D2E/DX2                !
 ! A55   A(13,14,21)           106.2083         estimate D2E/DX2                !
 ! A56   A(13,14,35)           107.8583         estimate D2E/DX2                !
 ! A57   A(15,14,21)           112.5428         estimate D2E/DX2                !
 ! A58   A(15,14,35)           107.054          estimate D2E/DX2                !
 ! A59   A(21,14,35)           111.4898         estimate D2E/DX2                !
 ! A60   A(14,15,16)           111.4057         estimate D2E/DX2                !
 ! A61   A(14,15,20)           107.2916         estimate D2E/DX2                !
 ! A62   A(14,15,36)           109.8877         estimate D2E/DX2                !
 ! A63   A(16,15,20)           104.7324         estimate D2E/DX2                !
 ! A64   A(16,15,36)           110.8079         estimate D2E/DX2                !
 ! A65   A(20,15,36)           112.5896         estimate D2E/DX2                !
 ! A66   A(15,16,17)           114.6256         estimate D2E/DX2                !
 ! A67   A(12,17,16)           111.5554         estimate D2E/DX2                !
 ! A68   A(12,17,18)           112.7848         estimate D2E/DX2                !
 ! A69   A(12,17,37)           108.4761         estimate D2E/DX2                !
 ! A70   A(16,17,18)           102.2256         estimate D2E/DX2                !
 ! A71   A(16,17,37)           112.2012         estimate D2E/DX2                !
 ! A72   A(18,17,37)           109.5489         estimate D2E/DX2                !
 ! A73   A(17,18,19)           109.2655         estimate D2E/DX2                !
 ! A74   A(17,18,38)           109.4109         estimate D2E/DX2                !
 ! A75   A(17,18,39)           110.4046         estimate D2E/DX2                !
 ! A76   A(19,18,38)           106.6952         estimate D2E/DX2                !
 ! A77   A(19,18,39)           111.9623         estimate D2E/DX2                !
 ! A78   A(38,18,39)           109.0091         estimate D2E/DX2                !
 ! A79   A(18,19,40)           105.7639         estimate D2E/DX2                !
 ! A80   A(15,20,44)           112.2781         estimate D2E/DX2                !
 ! A81   A(14,21,41)           105.2331         estimate D2E/DX2                !
 ! A82   A(6,22,13)            110.5681         estimate D2E/DX2                !
 ! A83   A(5,23,43)            104.1343         estimate D2E/DX2                !
 ! D1    D(45,1,2,3)           -68.4503         estimate D2E/DX2                !
 ! D2    D(45,1,2,8)           175.0316         estimate D2E/DX2                !
 ! D3    D(45,1,2,24)           54.4785         estimate D2E/DX2                !
 ! D4    D(1,2,3,4)             62.2352         estimate D2E/DX2                !
 ! D5    D(1,2,3,5)            -59.3683         estimate D2E/DX2                !
 ! D6    D(1,2,3,25)          -177.305          estimate D2E/DX2                !
 ! D7    D(8,2,3,4)            179.2352         estimate D2E/DX2                !
 ! D8    D(8,2,3,5)             57.6317         estimate D2E/DX2                !
 ! D9    D(8,2,3,25)           -60.3049         estimate D2E/DX2                !
 ! D10   D(24,2,3,4)           -60.4128         estimate D2E/DX2                !
 ! D11   D(24,2,3,5)           177.9837         estimate D2E/DX2                !
 ! D12   D(24,2,3,25)           60.047          estimate D2E/DX2                !
 ! D13   D(1,2,8,7)             51.939          estimate D2E/DX2                !
 ! D14   D(1,2,8,9)            -66.7871         estimate D2E/DX2                !
 ! D15   D(1,2,8,29)           172.8013         estimate D2E/DX2                !
 ! D16   D(3,2,8,7)            -66.9986         estimate D2E/DX2                !
 ! D17   D(3,2,8,9)            174.2752         estimate D2E/DX2                !
 ! D18   D(3,2,8,29)            53.8636         estimate D2E/DX2                !
 ! D19   D(24,2,8,7)           172.417          estimate D2E/DX2                !
 ! D20   D(24,2,8,9)            53.6909         estimate D2E/DX2                !
 ! D21   D(24,2,8,29)          -66.7207         estimate D2E/DX2                !
 ! D22   D(2,3,4,26)          -174.6302         estimate D2E/DX2                !
 ! D23   D(5,3,4,26)           -53.8734         estimate D2E/DX2                !
 ! D24   D(25,3,4,26)           66.3853         estimate D2E/DX2                !
 ! D25   D(2,3,5,6)            -47.8066         estimate D2E/DX2                !
 ! D26   D(2,3,5,23)          -170.276          estimate D2E/DX2                !
 ! D27   D(2,3,5,27)            71.474          estimate D2E/DX2                !
 ! D28   D(4,3,5,6)           -168.661          estimate D2E/DX2                !
 ! D29   D(4,3,5,23)            68.8696         estimate D2E/DX2                !
 ! D30   D(4,3,5,27)           -49.3803         estimate D2E/DX2                !
 ! D31   D(25,3,5,6)            69.886          estimate D2E/DX2                !
 ! D32   D(25,3,5,23)          -52.5834         estimate D2E/DX2                !
 ! D33   D(25,3,5,27)         -170.8334         estimate D2E/DX2                !
 ! D34   D(3,5,6,7)             44.6804         estimate D2E/DX2                !
 ! D35   D(3,5,6,22)           166.0086         estimate D2E/DX2                !
 ! D36   D(3,5,6,28)           -77.0545         estimate D2E/DX2                !
 ! D37   D(23,5,6,7)           164.3628         estimate D2E/DX2                !
 ! D38   D(23,5,6,22)          -74.3091         estimate D2E/DX2                !
 ! D39   D(23,5,6,28)           42.6279         estimate D2E/DX2                !
 ! D40   D(27,5,6,7)           -73.4564         estimate D2E/DX2                !
 ! D41   D(27,5,6,22)           47.8718         estimate D2E/DX2                !
 ! D42   D(27,5,6,28)          164.8087         estimate D2E/DX2                !
 ! D43   D(3,5,23,43)         -158.8482         estimate D2E/DX2                !
 ! D44   D(6,5,23,43)           77.7323         estimate D2E/DX2                !
 ! D45   D(27,5,23,43)         -43.2651         estimate D2E/DX2                !
 ! D46   D(5,6,7,8)            -52.2213         estimate D2E/DX2                !
 ! D47   D(22,6,7,8)          -168.4741         estimate D2E/DX2                !
 ! D48   D(28,6,7,8)            68.3896         estimate D2E/DX2                !
 ! D49   D(5,6,22,13)           55.0868         estimate D2E/DX2                !
 ! D50   D(7,6,22,13)          177.475          estimate D2E/DX2                !
 ! D51   D(28,6,22,13)         -59.8449         estimate D2E/DX2                !
 ! D52   D(6,7,8,2)             64.5106         estimate D2E/DX2                !
 ! D53   D(6,7,8,9)           -173.806          estimate D2E/DX2                !
 ! D54   D(6,7,8,29)           -55.3578         estimate D2E/DX2                !
 ! D55   D(2,8,9,10)           -54.6791         estimate D2E/DX2                !
 ! D56   D(2,8,9,30)            65.9564         estimate D2E/DX2                !
 ! D57   D(2,8,9,31)          -176.3596         estimate D2E/DX2                !
 ! D58   D(7,8,9,10)          -175.3991         estimate D2E/DX2                !
 ! D59   D(7,8,9,30)           -54.7637         estimate D2E/DX2                !
 ! D60   D(7,8,9,31)            62.9204         estimate D2E/DX2                !
 ! D61   D(29,8,9,10)           65.4226         estimate D2E/DX2                !
 ! D62   D(29,8,9,30)         -173.9419         estimate D2E/DX2                !
 ! D63   D(29,8,9,31)          -56.2579         estimate D2E/DX2                !
 ! D64   D(8,9,10,32)         -163.1452         estimate D2E/DX2                !
 ! D65   D(30,9,10,32)          78.1934         estimate D2E/DX2                !
 ! D66   D(31,9,10,32)         -44.1052         estimate D2E/DX2                !
 ! D67   D(42,11,12,13)        128.7612         estimate D2E/DX2                !
 ! D68   D(42,11,12,17)       -107.9175         estimate D2E/DX2                !
 ! D69   D(42,11,12,33)          7.8353         estimate D2E/DX2                !
 ! D70   D(11,12,13,14)        176.3788         estimate D2E/DX2                !
 ! D71   D(11,12,13,22)        -65.2131         estimate D2E/DX2                !
 ! D72   D(11,12,13,34)         57.5508         estimate D2E/DX2                !
 ! D73   D(17,12,13,14)         54.2654         estimate D2E/DX2                !
 ! D74   D(17,12,13,22)        172.6735         estimate D2E/DX2                !
 ! D75   D(17,12,13,34)        -64.5626         estimate D2E/DX2                !
 ! D76   D(33,12,13,14)        -61.7184         estimate D2E/DX2                !
 ! D77   D(33,12,13,22)         56.6897         estimate D2E/DX2                !
 ! D78   D(33,12,13,34)        179.4536         estimate D2E/DX2                !
 ! D79   D(11,12,17,16)        174.4917         estimate D2E/DX2                !
 ! D80   D(11,12,17,18)         60.1054         estimate D2E/DX2                !
 ! D81   D(11,12,17,37)        -61.4287         estimate D2E/DX2                !
 ! D82   D(13,12,17,16)        -56.7639         estimate D2E/DX2                !
 ! D83   D(13,12,17,18)       -171.1502         estimate D2E/DX2                !
 ! D84   D(13,12,17,37)         67.3156         estimate D2E/DX2                !
 ! D85   D(33,12,17,16)         58.3587         estimate D2E/DX2                !
 ! D86   D(33,12,17,18)        -56.0276         estimate D2E/DX2                !
 ! D87   D(33,12,17,37)       -177.5618         estimate D2E/DX2                !
 ! D88   D(12,13,14,15)        -53.4237         estimate D2E/DX2                !
 ! D89   D(12,13,14,21)       -176.4422         estimate D2E/DX2                !
 ! D90   D(12,13,14,35)         63.9232         estimate D2E/DX2                !
 ! D91   D(22,13,14,15)       -172.7206         estimate D2E/DX2                !
 ! D92   D(22,13,14,21)         64.2609         estimate D2E/DX2                !
 ! D93   D(22,13,14,35)        -55.3737         estimate D2E/DX2                !
 ! D94   D(34,13,14,15)         65.6747         estimate D2E/DX2                !
 ! D95   D(34,13,14,21)        -57.3438         estimate D2E/DX2                !
 ! D96   D(34,13,14,35)       -176.9784         estimate D2E/DX2                !
 ! D97   D(12,13,22,6)         145.5863         estimate D2E/DX2                !
 ! D98   D(14,13,22,6)         -95.5442         estimate D2E/DX2                !
 ! D99   D(34,13,22,6)          24.2767         estimate D2E/DX2                !
 ! D100  D(13,14,15,16)         53.2852         estimate D2E/DX2                !
 ! D101  D(13,14,15,20)        167.3714         estimate D2E/DX2                !
 ! D102  D(13,14,15,36)        -69.9149         estimate D2E/DX2                !
 ! D103  D(21,14,15,16)        172.6194         estimate D2E/DX2                !
 ! D104  D(21,14,15,20)        -73.2943         estimate D2E/DX2                !
 ! D105  D(21,14,15,36)         49.4194         estimate D2E/DX2                !
 ! D106  D(35,14,15,16)        -64.5458         estimate D2E/DX2                !
 ! D107  D(35,14,15,20)         49.5405         estimate D2E/DX2                !
 ! D108  D(35,14,15,36)        172.2542         estimate D2E/DX2                !
 ! D109  D(13,14,21,41)       -172.6583         estimate D2E/DX2                !
 ! D110  D(15,14,21,41)         64.8882         estimate D2E/DX2                !
 ! D111  D(35,14,21,41)        -55.422          estimate D2E/DX2                !
 ! D112  D(14,15,16,17)        -56.0982         estimate D2E/DX2                !
 ! D113  D(20,15,16,17)       -171.7683         estimate D2E/DX2                !
 ! D114  D(36,15,16,17)         66.5751         estimate D2E/DX2                !
 ! D115  D(14,15,20,44)        165.3214         estimate D2E/DX2                !
 ! D116  D(16,15,20,44)        -76.1826         estimate D2E/DX2                !
 ! D117  D(36,15,20,44)         44.2971         estimate D2E/DX2                !
 ! D118  D(15,16,17,12)         58.5413         estimate D2E/DX2                !
 ! D119  D(15,16,17,18)        179.3149         estimate D2E/DX2                !
 ! D120  D(15,16,17,37)        -63.4128         estimate D2E/DX2                !
 ! D121  D(12,17,18,19)         61.6731         estimate D2E/DX2                !
 ! D122  D(12,17,18,38)        178.1491         estimate D2E/DX2                !
 ! D123  D(12,17,18,39)        -61.8809         estimate D2E/DX2                !
 ! D124  D(16,17,18,19)        -58.2447         estimate D2E/DX2                !
 ! D125  D(16,17,18,38)         58.2313         estimate D2E/DX2                !
 ! D126  D(16,17,18,39)        178.2012         estimate D2E/DX2                !
 ! D127  D(37,17,18,19)       -177.4024         estimate D2E/DX2                !
 ! D128  D(37,17,18,38)        -60.9264         estimate D2E/DX2                !
 ! D129  D(37,17,18,39)         59.0436         estimate D2E/DX2                !
 ! D130  D(17,18,19,40)        -80.5659         estimate D2E/DX2                !
 ! D131  D(38,18,19,40)        161.2453         estimate D2E/DX2                !
 ! D132  D(39,18,19,40)         42.0617         estimate D2E/DX2                !
 --------------------------------------------------------------------------------
 Trust Radius=3.00D-01 FncErr=1.00D-07 GrdErr=1.00D-07 EigMax=2.50D+02 EigMin=1.00D-04
 Number of steps in this run=    270 maximum allowed number of steps=    270.
 GradGradGradGradGradGradGradGradGradGradGradGradGradGradGradGradGradGrad

 Leave Link  103 at Tue Jun 22 14:17:16 2021, MaxMem=  2147483648 cpu:               0.1 elap:               0.0
 (Enter /home/matma/Programs/gaussian/G16_x86_SSE4/tar/g16/l202.exe)
                          Input orientation:                          
 ---------------------------------------------------------------------
 Center     Atomic      Atomic             Coordinates (Angstroms)
 Number     Number       Type             X           Y           Z
 ---------------------------------------------------------------------
      1          8           0        3.185000   -0.561000    0.901000
      2          6           0        3.472000   -0.369000    2.307000
      3          6           0        3.308000   -1.694000    3.082000
      4          8           0        4.251000   -2.660000    2.588000
      5          6           0        1.857000   -2.209000    2.918000
      6          6           0        0.776000   -1.089000    3.175000
      7          8           0        1.087000    0.166000    2.541000
      8          6           0        2.421000    0.615000    2.871000
      9          6           0        2.579000    2.025000    2.272000
     10          8           0        3.939000    2.420000    2.508000
     11          8           0       -3.013000   -2.320000    4.275000
     12          6           0       -2.287000   -3.198000    3.381000
     13          6           0       -0.756000   -2.983000    3.226000
     14          6           0       -0.183000   -4.084000    2.301000
     15          6           0       -0.569000   -5.504000    2.794000
     16          8           0       -1.983000   -5.626000    2.980000
     17          6           0       -2.553000   -4.661000    3.871000
     18          6           0       -4.042000   -5.035000    3.846000
     19          8           0       -4.531000   -4.960000    2.484000
     20          8           0       -0.264000   -6.409000    1.750000
     21          8           0        1.232000   -3.881000    2.268000
     22          8           0       -0.506000   -1.709000    2.617000
     23          8           0        1.707000   -3.300000    3.836000
     24          1           0        4.490000    0.038000    2.438000
     25          1           0        3.489000   -1.489000    4.157000
     26          1           0        4.012000   -3.498000    3.078000
     27          1           0        1.761000   -2.560000    1.876000
     28          1           0        0.693000   -0.944000    4.275000
     29          1           0        2.545000    0.672000    3.970000
     30          1           0        2.346000    1.980000    1.190000
     31          1           0        1.849000    2.698000    2.757000
     32          1           0        3.953000    3.408000    2.377000
     33          1           0       -2.720000   -3.098000    2.369000
     34          1           0       -0.272000   -3.064000    4.222000
     35          1           0       -0.636000   -3.954000    1.296000
     36          1           0       -0.024000   -5.739000    3.737000
     37          1           0       -2.163000   -4.762000    4.902000
     38          1           0       -4.162000   -6.081000    4.168000
     39          1           0       -4.613000   -4.383000    4.525000
     40          1           0       -4.710000   -3.993000    2.313000
     41          1           0        1.572000   -4.516000    1.577000
     42          1           0       -3.930000   -1.865000    3.745000
     43          1           0        0.933000   -3.819000    3.474000
     44          1           0       -0.260000   -7.322000    2.049000
     45          1           0        3.844000   -1.106000    0.452000
 ---------------------------------------------------------------------
                    Distance matrix (angstroms):
                    1          2          3          4          5
     1  O    0.000000
     2  C    1.447781   0.000000
     3  C    2.460809   1.543744   0.000000
     4  O    2.896226   2.436079   1.437512   0.000000
     5  C    2.923658   2.523320   1.548393   2.458361   0.000000
     6  C    3.354570   2.922369   2.604937   3.858528   1.577660
     7  O    2.760386   2.455444   2.947053   4.242568   2.525006
     8  C    2.418175   1.546271   2.482493   3.762262   2.880153
     9  C    2.989025   2.555369   3.875371   4.984442   4.343427
    10  O    3.469485   2.834962   4.201504   5.090201   5.092196
    11  O    7.272768   7.052280   6.462984   7.465070   5.056745
    12  C    6.561018   6.505597   5.801331   6.607854   4.285467
    13  C    5.177180   5.055051   4.265953   5.057808   2.742573
    14  C    5.070991   5.211553   4.302225   4.665887   2.838647
    15  C    6.489161   6.552486   5.443360   5.600283   4.093639
    16  O    7.528924   7.605656   6.592853   6.914736   5.140558
    17  C    7.652159   7.560951   6.616414   7.207254   5.135038
    18  C    8.995512   8.977765   8.109777   8.717628   6.606486
    19  O    9.021848   9.228034   8.513183   9.078785   6.968709
    20  O    6.842186   7.123871   6.063385   5.928108   4.847975
    21  O    4.087212   4.165725   3.123354   3.272247   1.899660
    22  O    4.229189   4.209060   3.842271   4.851215   2.434003
    23  O    4.277947   3.747509   2.389760   2.905003   1.433703
    24  H    2.103377   1.104144   2.193555   2.712715   3.494581
    25  H    3.399285   2.162681   1.109239   2.100868   2.171853
    26  H    3.748230   3.267519   1.936504   0.999732   2.516177
    27  H    2.640909   2.813141   2.144202   2.591726   1.103712
    28  H    4.211963   3.453475   2.970517   4.295345   2.190107
    29  H    3.368776   2.169926   2.639824   3.990311   3.143280
    30  H    2.691491   2.834319   4.243039   5.207017   4.557722
    31  H    3.981295   3.499017   4.639393   5.874209   4.909647
    32  H    4.303645   3.808148   5.190708   6.078976   6.019683
    33  H    6.592452   6.766990   6.230278   6.988179   4.694747
    34  H    5.407855   4.994776   3.999112   4.826044   2.638955
    35  H    5.125282   5.545269   4.883905   5.217899   3.448327
    36  H    6.719543   6.565350   5.281408   5.392223   4.082869
    37  H    7.890343   7.601691   6.531222   7.135292   5.158921
    38  H    9.753056   9.714331   8.730754   9.218363   7.265208
    39  H    9.410094   9.295103   8.488534   9.235323   7.012106
    40  H    8.723726   8.948661   8.376460   9.063776   6.831850
    41  H    4.324439   4.619579   3.639012   3.412316   2.683609
    42  H    7.772514   7.687357   7.270313   8.300568   5.855906
    43  H    4.722965   4.439697   3.210905   3.624555   1.937785
    44  H    7.674441   7.895480   6.743300   6.509523   5.601751
    45  H    0.965871   2.030413   2.747715   2.672651   3.353496
                    6          7          8          9         10
     6  C    0.000000
     7  O    1.440035   0.000000
     8  C    2.387898   1.445703   0.000000
     9  C    3.709881   2.398813   1.540086   0.000000
    10  O    4.771010   3.635314   2.386235   1.435730   0.000000
    11  O    4.133023   5.098721   6.333545   7.359450   8.597685
    12  C    3.724552   4.837972   6.079830   7.224096   8.431318
    13  C    2.436567   3.712422   4.812999   6.091995   7.193814
    14  C    3.263983   4.442184   5.402436   6.704429   7.702970
    15  C    4.631027   5.912296   6.810888   8.177300   9.121055
    16  O    5.313612   6.569999   7.639187   8.935934  10.001549
    17  C    4.932123   6.190188   7.319621   8.578859   9.702803
    18  C    6.263727   7.420247   8.639647   9.806055  11.002892
    19  O    6.605026   7.605330   8.919680   9.969316  11.234139
    20  O    5.604875   6.758810   7.602792   8.915576   9.807702
    21  O    2.970833   4.058788   4.689493   6.057661   6.862073
    22  O    1.529473   2.461514   3.746041   4.855822   6.067829
    23  O    2.488414   3.751610   4.094905   5.618016   6.282023
    24  H    3.950581   3.406964   2.191159   2.761819   2.445900
    25  H    2.912850   3.334679   2.687236   4.090174   4.266378
    26  H    4.035392   4.718992   4.414850   5.762521   5.945835
    27  H    2.195784   2.885754   3.392086   4.674202   5.472066
    28  H    1.112616   2.096209   2.718029   4.047711   4.997529
    29  H    2.619639   2.103293   1.107441   2.171398   2.671364
    30  H    3.977925   2.588605   2.166705   1.107717   2.113853
    31  H    3.958209   2.652984   2.163116   1.105013   2.123060
    32  H    5.563555   4.330291   3.223648   1.952329   0.996745
    33  H    4.111901   5.017622   6.361466   7.371156   8.649273
    34  H    2.468833   3.886585   4.755259   6.150498   7.123523
    35  H    3.705754   4.636071   5.718534   6.858370   7.938983
    36  H    4.751667   6.126480   6.863038   8.318746   9.153420
    37  H    5.011106   6.357830   7.351880   8.687165   9.723516
    38  H    7.091541   8.320105   9.479162  10.711822  11.859545
    39  H    6.458658   7.557755   8.785948   9.892590  11.112417
    40  H    6.266774   7.138240   8.508595   9.452382  10.768927
    41  H    3.864136   4.804752   5.359328   6.654454   7.387662
    42  H    4.803490   5.544805   6.873825   7.724565   9.045029
    43  H    2.750809   4.095660   4.715730   6.189221   6.992447
    44  H    6.418057   7.624081   8.417803   9.771185  10.618326
    45  H    4.102151   3.685506   3.292162   3.836116   4.082749
                   11         12         13         14         15
    11  O    0.000000
    12  C    1.448170   0.000000
    13  C    2.575659   1.553773   0.000000
    14  C    3.875213   2.525512   1.547952   0.000000
    15  C    4.278359   2.934916   2.564573   1.551917   0.000000
    16  O    3.696966   2.479597   2.924294   2.465523   1.431390
    17  C    2.419731   1.565639   2.541834   2.900815   2.409737
    18  C    2.934980   2.582793   3.923379   4.264189   3.659015
    19  O    3.532932   2.990784   4.325473   4.439141   4.011169
    20  O    5.536474   4.130764   3.762727   2.390771   1.414916
    21  O    4.948211   3.753481   2.382501   1.429868   2.480808
    22  O    3.067138   2.443927   1.434035   2.417604   3.799648
    23  O    4.840612   4.021127   2.557139   2.557925   3.335200
    24  H    8.076493   7.568928   6.104744   6.232703   7.512255
    25  H    6.555951   6.073305   4.595522   4.864396   5.869017
    26  H    7.222958   6.313415   4.798016   4.306408   5.009017
    27  H    5.348259   4.365590   2.887338   2.506459   3.865069
    28  H    3.953203   3.841894   2.712475   3.810991   4.957782
    29  H    6.319529   6.218685   4.980880   5.731237   7.015907
    30  H    7.531674   7.285386   6.196698   6.663502   8.190256
    31  H    7.150083   7.229017   6.267356   7.094539   8.551076
    32  H    9.216157   9.142475   7.983756   8.558174  10.002306
    33  H    2.079416   1.105275   2.145919   2.722717   3.255190
    34  H    2.840674   2.187570   1.110330   2.176824   2.842709
    35  H    4.146628   2.764880   2.163826   1.110015   2.156616
    36  H    4.573087   3.421197   2.896978   2.196907   1.114226
    37  H    2.660638   2.185157   2.820189   3.338455   2.745007
    38  H    3.934053   3.527986   4.699554   4.827643   3.889788
    39  H    2.622684   2.850129   4.303934   4.965932   4.539487
    40  H    3.086775   2.764702   4.181840   4.527930   4.434226
    41  H    5.755332   4.459083   3.238653   1.947004   2.653510
    42  H    1.152742   2.146820   3.404932   4.587930   5.044110
    43  H    4.296454   3.280654   1.900821   1.640613   2.357462
    44  H    6.128139   4.784384   4.523081   3.248704   1.988877
    45  H    7.944028   7.109477   5.690185   5.338915   6.655970
                   16         17         18         19         20
    16  O    0.000000
    17  C    1.431784   0.000000
    18  C    2.310567   1.535455   0.000000
    19  O    2.679902   2.434267   1.449065   0.000000
    20  O    2.254096   3.576823   4.533693   4.565703   0.000000
    21  O    3.726687   4.183806   5.624667   5.867117   2.982805
    22  O    4.201927   3.804869   5.007596   5.175646   4.785421
    23  O    4.445122   4.472264   6.005108   6.595161   4.231089
    24  H    8.618259   8.587080  10.025608  10.313126   8.039756
    25  H    6.960092   6.830018   8.329874   8.897593   6.639658
    26  H    6.362233   6.714212   8.235236   8.687527   5.340569
    27  H    4.963538   5.196616   6.609186   6.761577   4.351012
    28  H    5.546091   4.951345   6.272204   6.828332   6.095712
    29  H    7.819699   7.378367   8.716295   9.165009   7.934699
    30  H    8.932837   8.677030   9.852467   9.855514   8.803466
    31  H    9.166402   8.647166   9.782080   9.971153   9.402992
    32  H   10.826489  10.472289  11.720164  11.916926  10.702790
    33  H    2.703197   2.174135   2.771495   2.599998   4.168671
    34  H    3.321736   2.806523   4.270728   4.975394   4.159312
    35  H    2.728708   3.287151   4.389977   4.194569   2.524188
    36  H    2.103212   2.752432   4.080664   4.742352   2.110609
    37  H    2.114942   1.106916   2.172627   3.390185   4.031614
    38  H    2.523175   2.166446   1.101000   2.056370   4.598773
    39  H    3.293778   2.179128   1.100993   2.122577   5.542482
    40  H    3.247785   2.743399   1.970299   0.998184   5.091261
    41  H    3.979766   4.722191   6.077394   6.185984   2.642778
    42  H    4.303621   3.119234   3.173586   3.395636   6.169888
    43  H    3.465882   3.608153   5.134945   5.668975   3.333629
    44  H    2.590735   3.957076   4.771069   4.899970   0.960722
    45  H    7.795839   8.077697   9.441677   9.440496   6.832443
                   21         22         23         24         25
    21  O    0.000000
    22  O    2.803574   0.000000
    23  O    1.738335   2.985735   0.000000
    24  H    5.099218   5.295665   4.565275   0.000000
    25  H    3.792629   4.287193   2.560915   2.507726   0.000000
    26  H    2.920820   4.881123   2.434501   3.625104   2.339626
    27  H    1.475990   2.532305   2.095738   3.809579   3.055485
    28  H    3.597852   2.184443   2.602240   4.330832   2.851064
    29  H    5.034936   4.099801   4.061648   2.555779   2.365592
    30  H    6.062541   4.876367   5.940373   3.150493   4.705688
    31  H    6.625938   4.998727   6.095934   3.761947   4.709625
    32  H    7.781082   6.791463   7.222912   3.413062   5.231090
    33  H    4.030086   2.625380   4.668107   7.862783   6.658641
    34  H    2.597618   2.113482   2.030057   5.956652   4.077986
    35  H    2.107021   2.608058   3.516954   6.596674   5.592600
    36  H    2.680981   4.210419   2.992471   7.445625   5.529925
    37  H    4.386359   4.157846   4.272084   8.565845   6.573634
    38  H    6.127417   5.906464   6.503026  10.737419   8.923250
    39  H    6.285704   5.259105   6.449032  10.332735   8.611217
    40  H    5.943226   4.794026   6.631566  10.045127   8.768920
    41  H    0.998151   3.644027   2.569039   5.476766   4.415203
    42  H    5.735157   3.608392   5.817497   8.730754   7.439938
    43  H    1.244058   2.693932   0.999740   5.348083   3.525411
    44  H    3.756928   5.647027   4.820679   8.768319   7.247245
    45  H    4.221496   4.896257   4.564193   2.381228   3.741623
                   26         27         28         29         30
    26  H    0.000000
    27  H    2.718759   0.000000
    28  H    4.355627   3.083388   0.000000
    29  H    4.509618   3.930053   2.476769   0.000000
    30  H    6.028979   4.628652   4.560637   3.078777   0.000000
    31  H    6.570542   5.332023   4.111548   2.461800   1.793885
    32  H    6.941737   6.377530   5.759332   3.464940   2.455728
    33  H    6.781040   4.540028   4.463308   6.670557   7.269146
    34  H    4.455306   3.144968   2.329900   4.685797   6.441187
    35  H    4.998736   2.832886   4.438556   6.218433   6.641981
    36  H    4.663224   4.093359   4.878069   6.910497   8.466822
    37  H    6.561654   5.422477   4.809053   7.249982   8.919898
    38  H    8.641427   7.261724   7.069034   9.519772  10.779716
    39  H    8.790202   7.139216   6.327943   8.780547  10.001884
    40  H    8.769466   6.642161   6.506785   8.783103   9.312626
    41  H    3.040218   1.987727   4.561911   5.795561   6.553385
    42  H    8.135536   6.030229   4.743550   6.957918   7.791035
    43  H    3.120913   2.196422   2.994132   4.797253   6.390745
    44  H    5.825101   5.176004   6.822182   8.686904   9.698264
    45  H    3.556088   2.912178   4.956851   4.150302   3.508852
                   31         32         33         34         35
    31  H    0.000000
    32  H    2.252846   0.000000
    33  H    7.390529   9.319712   0.000000
    34  H    6.312330   7.946158   3.070418   0.000000
    35  H    7.249748   8.742227   2.495420   3.079947   0.000000
    36  H    8.697787  10.066466   4.014315   2.729900   3.085328
    37  H    8.737778  10.513324   3.081434   2.630872   3.998478
    38  H   10.732841  12.613565   3.770153   4.923140   5.020477
    39  H    9.748017  11.776669   3.143725   4.547071   5.140721
    40  H    9.380144  11.394142   2.182719   4.919671   4.199201
    41  H    7.315116   8.312577   4.589036   3.536194   2.295663
    42  H    7.429263   9.582152   2.208566   3.878929   4.605644
    43  H    6.620003   7.909067   3.883977   1.606722   2.687689
    44  H   10.263993  11.532123   4.898589   4.780443   3.471572
    45  H    4.874779   4.908534   7.122433   5.915076   5.375299
                   36         37         38         39         40
    36  H    0.000000
    37  H    2.624324   0.000000
    38  H    4.174418   2.504899   0.000000
    39  H    4.849598   2.507642   1.792778   0.000000
    40  H    5.199508   3.712343   2.846238   2.248211   0.000000
    41  H    2.951024   5.006632   6.483923   6.852928   6.346554
    42  H    5.501343   3.585184   4.243514   2.723089   2.680934
    43  H    2.161346   3.537464   5.617589   5.672813   5.763822
    44  H    2.326140   4.279558   4.610406   5.806626   5.563671
    45  H    6.871487   8.321832  10.131896   9.942279   9.217863
                   41         42         43         44         45
    41  H    0.000000
    42  H    6.480743   0.000000
    43  H    2.119608   5.247888   0.000000
    44  H    3.384176   6.791477   3.965461   0.000000
    45  H    4.249201   8.476733   4.996676   7.617866   0.000000
 Stoichiometry    C12H22O11
 Framework group  C1[X(C12H22O11)]
 Deg. of freedom   129
 Full point group                 C1      NOp   1
 Largest Abelian subgroup         C1      NOp   1
 Largest concise Abelian subgroup C1      NOp   1
                         Standard orientation:                         
 ---------------------------------------------------------------------
 Center     Atomic      Atomic             Coordinates (Angstroms)
 Number     Number       Type             X           Y           Z
 ---------------------------------------------------------------------
      1          8           0        3.526792    0.716327    1.470188
      2          6           0        3.733048    0.494546    0.054441
      3          6           0        2.656043    1.227298   -0.773978
      4          8           0        2.758405    2.643639   -0.550499
      5          6           0        1.254750    0.707172   -0.369789
      6          6           0        1.175289   -0.867779   -0.322626
      7          8           0        2.301104   -1.480478    0.333761
      8          6           0        3.556039   -1.017754   -0.214946
      9          6           0        4.668396   -1.850494    0.449187
     10          8           0        5.915602   -1.313320   -0.016904
     11          8           0       -2.553802   -2.597256   -0.752355
     12          6           0       -2.515411   -1.310752   -0.088554
     13          6           0       -1.224132   -0.456599   -0.219826
     14          6           0       -1.444455    0.902869    0.486898
     15          6           0       -2.722158    1.616282   -0.029784
     16          8           0       -3.867885    0.762520    0.055514
     17          6           0       -3.732605   -0.487674   -0.629116
     18          6           0       -5.081446   -1.162999   -0.342435
     19          8           0       -5.263761   -1.277609    1.090540
     20          8           0       -2.999116    2.680206    0.860916
     21          8           0       -0.258665    1.668431    0.258119
     22          8           0       -0.133216   -1.127328    0.425529
     23          8           0        0.330199    1.248378   -1.322579
     24          1           0        4.745057    0.822553   -0.241169
     25          1           0        2.824018    0.989802   -1.844394
     26          1           0        1.977115    3.020093   -1.047825
     27          1           0        1.049399    1.101533    0.640405
     28          1           0        1.105510   -1.235218   -1.370497
     29          1           0        3.581041   -1.186541   -1.309164
     30          1           0        4.569064   -1.763910    1.549039
     31          1           0        4.529599   -2.910634    0.170094
     32          1           0        6.595928   -2.013208    0.185120
     33          1           0       -2.672986   -1.473581    0.993245
     34          1           0       -1.014633   -0.272072   -1.294486
     35          1           0       -1.597539    0.703592    1.568096
     36          1           0       -2.564930    1.964314   -1.076518
     37          1           0       -3.609340   -0.355324   -1.721156
     38          1           0       -5.897044   -0.524068   -0.714948
     39          1           0       -5.134993   -2.141690   -0.843915
     40          1           0       -4.736480   -2.078531    1.367792
     41          1           0       -0.363675    2.488183    0.817838
     42          1           0       -2.879386   -3.425366   -0.019523
     43          1           0       -0.553689    1.203796   -0.857568
     44          1           0       -3.632216    3.304468    0.496955
     45          1           0        3.694775    1.629023    1.737912
 ---------------------------------------------------------------------
 Rotational constants (GHZ):           0.5332887           0.1353220           0.1160702
 Leave Link  202 at Tue Jun 22 14:17:16 2021, MaxMem=  2147483648 cpu:               0.0 elap:               0.0
 (Enter /home/matma/Programs/gaussian/G16_x86_SSE4/tar/g16/l301.exe)
 Standard basis: VSTO-6G (5D, 7F)
 Ernie: Thresh=  0.10000D-02 Tol=  0.10000D-05 Strict=F.
  NNHCO=     0 NNPyr=     0 NCTC=     0               EPep=         0.000000000
    EC=      1179.351172723  ECS=         9.193159230   EG=         0.737470494
   EHC=         0.002764395  EAt=      -175.965002454  AtH=         6.138669069
 EPDDG=         0.000000000  ECC=      1189.284566842 EAtT=       182.103671523
 There are   114 symmetry adapted cartesian basis functions of A   symmetry.
 There are   114 symmetry adapted basis functions of A   symmetry.
   114 basis functions,   684 primitive gaussians,   114 cartesian basis functions
    68 alpha electrons       68 beta electrons
       nuclear repulsion energy      1371.3882383653 Hartrees.
 IExCor=    0 DFT=F Ex=HF Corr=None ExCW=0 ScaHFX=  1.000000
 ScaDFX=  1.000000  1.000000  1.000000  1.000000 ScalE2=  1.000000  1.000000
 IRadAn=  99590 IRanWt=     -1 IRanGd=            0 ICorTp=0 IEmpDi=  4
 Integral buffers will be    131072 words long.
 Regular integral format.
 Two-electron integral symmetry is turned off.
 Leave Link  301 at Tue Jun 22 14:17:16 2021, MaxMem=  2147483648 cpu:               0.3 elap:               0.0
 (Enter /home/matma/Programs/gaussian/G16_x86_SSE4/tar/g16/l302.exe)
 Do NDO integrals.
 NPDir=0 NMtPBC=     1 NCelOv=     1 NCel=       1 NClECP=     1 NCelD=      1
         NCelK=      1 NCelE2=     1 NClLst=     1 CellRange=     0.0.
 One-electron integrals computed using PRISM.
 NBasis=   114 RedAO= F EigKep=  0.00D+00  NBF=   114
 NBsUse=   114 1.00D-04 EigRej=  0.00D+00 NBFU=   114
 Leave Link  302 at Tue Jun 22 14:17:16 2021, MaxMem=  2147483648 cpu:               0.6 elap:               0.1
 (Enter /home/matma/Programs/gaussian/G16_x86_SSE4/tar/g16/l303.exe)
 DipDrv:  MaxL=1.
 Leave Link  303 at Tue Jun 22 14:17:16 2021, MaxMem=  2147483648 cpu:               0.1 elap:               0.0
 (Enter /home/matma/Programs/gaussian/G16_x86_SSE4/tar/g16/l401.exe)
 Simple Huckel Guess.
 JPrj=0 DoOrth=F DoCkMO=F.
 Leave Link  401 at Tue Jun 22 14:17:16 2021, MaxMem=  2147483648 cpu:               0.2 elap:               0.0
 (Enter /home/matma/Programs/gaussian/G16_x86_SSE4/tar/g16/l502.exe)
 Keep J ints in memory in canonical form, NReq=892272.
 FoFCou: FMM=F IPFlag=           0 FMFlag=           0 FMFlg1=           0
         NFxFlg=           0 DoJE=F BraDBF=F KetDBF=F FulRan=T
         wScrn=  0.000000 ICntrl=       600 IOpCl=  2 I1Cent=           0 NGrid=           0
         NMat0=    1 NMatS0=    252 NMatT0=    0 NMatD0=    1 NMtDS0=    0 NMtDT0=    0
 Symmetry not used in FoFCou.
 Two-electron integral symmetry not used.
 Closed shell SCF:
 Using DIIS extrapolation, IDIIS=  1040.
 Overlap will be assumed to be unity.
 NGot=  2147483648 LenX=  2147363403 LenY=  2147349966
 Requested convergence on RMS density matrix=1.00D-08 within 128 cycles.
 Requested convergence on MAX density matrix=1.00D-06.
 Requested convergence on             energy=1.00D-06.
 No special actions if energy rises.

 Cycle   1  Pass 1  IDiag  1:
 E= 0.811053909782459    
 DIIS: error= 5.71D-02 at cycle   1 NSaved=   1.
 NSaved= 1 IEnMin= 1 EnMin= 0.811053909782459     IErMin= 1 ErrMin= 5.71D-02
 ErrMax= 5.71D-02  0.00D+00 EMaxC= 1.00D-01 BMatC= 3.16D-01 BMatP= 3.16D-01
 IDIUse=3 WtCom= 4.29D-01 WtEn= 5.71D-01
 Coeff-Com:  0.100D+01
 Coeff-En:   0.100D+01
 Coeff:      0.100D+01
 GapD=    2.000 DampG=2.000 DampE=0.500 DampFc=1.0000 IDamp=-1.
 RMSDP=8.48D-03 MaxDP=1.51D-01              OVMax= 0.00D+00

 Cycle   2  Pass 1  IDiag  1:
 E=-0.225941387662260     Delta-E=       -1.036995297445 Rises=F Damp=F
 DIIS: error= 1.71D-02 at cycle   2 NSaved=   2.
 NSaved= 2 IEnMin= 2 EnMin=-0.225941387662260     IErMin= 2 ErrMin= 1.71D-02
 ErrMax= 1.71D-02  0.00D+00 EMaxC= 1.00D-01 BMatC= 4.90D-02 BMatP= 3.16D-01
 IDIUse=3 WtCom= 8.29D-01 WtEn= 1.71D-01
 Coeff-Com: -0.435D+00 0.144D+01
 Coeff-En:   0.000D+00 0.100D+01
 Coeff:     -0.361D+00 0.136D+01
 RMSDP=5.15D-03 MaxDP=6.92D-02 DE=-1.04D+00 OVMax= 0.00D+00

 Cycle   3  Pass 1  IDiag  3:
 E=-0.459730424779309     Delta-E=       -0.233789037117 Rises=F Damp=F
 DIIS: error= 5.99D-03 at cycle   3 NSaved=   3.
 NSaved= 3 IEnMin= 3 EnMin=-0.459730424779309     IErMin= 3 ErrMin= 5.99D-03
 ErrMax= 5.99D-03  0.00D+00 EMaxC= 1.00D-01 BMatC= 5.51D-03 BMatP= 4.90D-02
 IDIUse=3 WtCom= 9.40D-01 WtEn= 5.99D-02
 Coeff-Com:  0.239D+00-0.994D+00 0.175D+01
 Coeff-En:   0.000D+00 0.000D+00 0.100D+01
 Coeff:      0.225D+00-0.934D+00 0.171D+01
 Gap=     0.353 Goal=   None    Shift=    0.000
 RMSDP=2.64D-03 MaxDP=4.32D-02 DE=-2.34D-01 OVMax= 3.85D-02

 Cycle   4  Pass 1  IDiag  3:
 E=-0.496307033291032     Delta-E=       -0.036576608512 Rises=F Damp=F
 DIIS: error= 1.41D-03 at cycle   4 NSaved=   4.
 NSaved= 4 IEnMin= 4 EnMin=-0.496307033291032     IErMin= 4 ErrMin= 1.41D-03
 ErrMax= 1.41D-03  0.00D+00 EMaxC= 1.00D-01 BMatC= 2.62D-04 BMatP= 5.51D-03
 IDIUse=3 WtCom= 9.86D-01 WtEn= 1.41D-02
 Coeff-Com: -0.475D-01 0.233D+00-0.596D+00 0.141D+01
 Coeff-En:   0.000D+00 0.000D+00 0.000D+00 0.100D+01
 Coeff:     -0.468D-01 0.230D+00-0.588D+00 0.140D+01
 Gap=     0.355 Goal=   None    Shift=    0.000
 RMSDP=6.11D-04 MaxDP=9.22D-03 DE=-3.66D-02 OVMax= 9.58D-03

 Cycle   5  Pass 1  IDiag  3:
 E=-0.498129956959474     Delta-E=       -0.001822923668 Rises=F Damp=F
 DIIS: error= 3.39D-04 at cycle   5 NSaved=   5.
 NSaved= 5 IEnMin= 5 EnMin=-0.498129956959474     IErMin= 5 ErrMin= 3.39D-04
 ErrMax= 3.39D-04  0.00D+00 EMaxC= 1.00D-01 BMatC= 1.73D-05 BMatP= 2.62D-04
 IDIUse=3 WtCom= 9.97D-01 WtEn= 3.39D-03
 Coeff-Com:  0.376D-02-0.214D-01 0.876D-01-0.459D+00 0.139D+01
 Coeff-En:   0.000D+00 0.000D+00 0.000D+00 0.000D+00 0.100D+01
 Coeff:      0.375D-02-0.213D-01 0.873D-01-0.457D+00 0.139D+01
 Gap=     0.355 Goal=   None    Shift=    0.000
 RMSDP=1.52D-04 MaxDP=2.58D-03 DE=-1.82D-03 OVMax= 2.79D-03

 Cycle   6  Pass 1  IDiag  3:
 E=-0.498245695958303     Delta-E=       -0.000115738999 Rises=F Damp=F
 DIIS: error= 1.31D-04 at cycle   6 NSaved=   6.
 NSaved= 6 IEnMin= 6 EnMin=-0.498245695958303     IErMin= 6 ErrMin= 1.31D-04
 ErrMax= 1.31D-04  0.00D+00 EMaxC= 1.00D-01 BMatC= 1.29D-06 BMatP= 1.73D-05
 IDIUse=3 WtCom= 9.99D-01 WtEn= 1.31D-03
 Coeff-Com:  0.188D-02-0.704D-02 0.314D-02 0.101D+00-0.595D+00 0.150D+01
 Coeff-En:   0.000D+00 0.000D+00 0.000D+00 0.000D+00 0.000D+00 0.100D+01
 Coeff:      0.188D-02-0.703D-02 0.314D-02 0.101D+00-0.594D+00 0.150D+01
 Gap=     0.355 Goal=   None    Shift=    0.000
 RMSDP=4.25D-05 MaxDP=8.81D-04 DE=-1.16D-04 OVMax= 6.94D-04

 Cycle   7  Pass 1  IDiag  3:
 E=-0.498254339803225     Delta-E=       -0.000008643845 Rises=F Damp=F
 DIIS: error= 3.50D-05 at cycle   7 NSaved=   7.
 NSaved= 7 IEnMin= 7 EnMin=-0.498254339803225     IErMin= 7 ErrMin= 3.50D-05
 ErrMax= 3.50D-05  0.00D+00 EMaxC= 1.00D-01 BMatC= 7.80D-08 BMatP= 1.29D-06
 IDIUse=1 WtCom= 1.00D+00 WtEn= 0.00D+00
 Coeff-Com: -0.785D-03 0.322D-02-0.357D-02-0.268D-01 0.196D+00-0.667D+00
 Coeff-Com:  0.150D+01
 Coeff:     -0.785D-03 0.322D-02-0.357D-02-0.268D-01 0.196D+00-0.667D+00
 Coeff:      0.150D+01
 Gap=     0.355 Goal=   None    Shift=    0.000
 RMSDP=1.06D-05 MaxDP=1.96D-04 DE=-8.64D-06 OVMax= 1.68D-04

 Cycle   8  Pass 1  IDiag  3:
 E=-0.498254890014550     Delta-E=       -0.000000550211 Rises=F Damp=F
 DIIS: error= 7.98D-06 at cycle   8 NSaved=   8.
 NSaved= 8 IEnMin= 8 EnMin=-0.498254890014550     IErMin= 8 ErrMin= 7.98D-06
 ErrMax= 7.98D-06  0.00D+00 EMaxC= 1.00D-01 BMatC= 6.81D-09 BMatP= 7.80D-08
 IDIUse=1 WtCom= 1.00D+00 WtEn= 0.00D+00
 Coeff-Com:  0.137D-03-0.641D-03 0.792D-03 0.617D-02-0.489D-01 0.195D+00
 Coeff-Com: -0.685D+00 0.153D+01
 Coeff:      0.137D-03-0.641D-03 0.792D-03 0.617D-02-0.489D-01 0.195D+00
 Coeff:     -0.685D+00 0.153D+01
 Gap=     0.355 Goal=   None    Shift=    0.000
 RMSDP=3.36D-06 MaxDP=7.65D-05 DE=-5.50D-07 OVMax= 5.80D-05

 Cycle   9  Pass 1  IDiag  3:
 E=-0.498254941942605     Delta-E=       -0.000000051928 Rises=F Damp=F
 DIIS: error= 3.23D-06 at cycle   9 NSaved=   9.
 NSaved= 9 IEnMin= 9 EnMin=-0.498254941942605     IErMin= 9 ErrMin= 3.23D-06
 ErrMax= 3.23D-06  0.00D+00 EMaxC= 1.00D-01 BMatC= 6.08D-10 BMatP= 6.81D-09
 IDIUse=1 WtCom= 1.00D+00 WtEn= 0.00D+00
 Coeff-Com: -0.789D-05 0.737D-04-0.118D-03-0.884D-03 0.872D-02-0.437D-01
 Coeff-Com:  0.206D+00-0.710D+00 0.154D+01
 Coeff:     -0.789D-05 0.737D-04-0.118D-03-0.884D-03 0.872D-02-0.437D-01
 Coeff:      0.206D+00-0.710D+00 0.154D+01
 Gap=     0.355 Goal=   None    Shift=    0.000
 RMSDP=1.03D-06 MaxDP=2.66D-05 DE=-5.19D-08 OVMax= 1.73D-05

 Cycle  10  Pass 1  IDiag  3:
 E=-0.498254946750421     Delta-E=       -0.000000004808 Rises=F Damp=F
 DIIS: error= 9.19D-07 at cycle  10 NSaved=  10.
 NSaved=10 IEnMin=10 EnMin=-0.498254946750421     IErMin=10 ErrMin= 9.19D-07
 ErrMax= 9.19D-07  0.00D+00 EMaxC= 1.00D-01 BMatC= 6.12D-11 BMatP= 6.08D-10
 IDIUse=1 WtCom= 1.00D+00 WtEn= 0.00D+00
 Coeff-Com:  0.159D-05-0.261D-04 0.705D-04-0.179D-03-0.484D-03 0.676D-02
 Coeff-Com: -0.474D-01 0.223D+00-0.779D+00 0.160D+01
 Coeff:      0.159D-05-0.261D-04 0.705D-04-0.179D-03-0.484D-03 0.676D-02
 Coeff:     -0.474D-01 0.223D+00-0.779D+00 0.160D+01
 Gap=     0.355 Goal=   None    Shift=    0.000
 RMSDP=3.47D-07 MaxDP=8.54D-06 DE=-4.81D-09 OVMax= 5.45D-06

 Cycle  11  Pass 1  IDiag  3:
 E=-0.498254947233590     Delta-E=       -0.000000000483 Rises=F Damp=F
 DIIS: error= 2.16D-07 at cycle  11 NSaved=  11.
 NSaved=11 IEnMin=11 EnMin=-0.498254947233590     IErMin=11 ErrMin= 2.16D-07
 ErrMax= 2.16D-07  0.00D+00 EMaxC= 1.00D-01 BMatC= 4.52D-12 BMatP= 6.12D-11
 IDIUse=1 WtCom= 1.00D+00 WtEn= 0.00D+00
 Coeff-Com: -0.196D-05 0.152D-04-0.350D-04 0.145D-03-0.301D-03-0.487D-03
 Coeff-Com:  0.867D-02-0.543D-01 0.237D+00-0.707D+00 0.152D+01
 Coeff:     -0.196D-05 0.152D-04-0.350D-04 0.145D-03-0.301D-03-0.487D-03
 Coeff:      0.867D-02-0.543D-01 0.237D+00-0.707D+00 0.152D+01
 Gap=     0.355 Goal=   None    Shift=    0.000
 RMSDP=9.18D-08 MaxDP=1.88D-06 DE=-4.83D-10 OVMax= 1.67D-06

 Cycle  12  Pass 1  IDiag  3:
 E=-0.498254947274063     Delta-E=       -0.000000000040 Rises=F Damp=F
 DIIS: error= 7.77D-08 at cycle  12 NSaved=  12.
 NSaved=12 IEnMin=12 EnMin=-0.498254947274063     IErMin=12 ErrMin= 7.77D-08
 ErrMax= 7.77D-08  0.00D+00 EMaxC= 1.00D-01 BMatC= 4.13D-13 BMatP= 4.52D-12
 IDIUse=1 WtCom= 1.00D+00 WtEn= 0.00D+00
 Coeff-Com:  0.130D-05-0.861D-05 0.178D-04-0.738D-04 0.205D-03-0.161D-03
 Coeff-Com: -0.173D-02 0.139D-01-0.673D-01 0.236D+00-0.746D+00 0.157D+01
 Coeff:      0.130D-05-0.861D-05 0.178D-04-0.738D-04 0.205D-03-0.161D-03
 Coeff:     -0.173D-02 0.139D-01-0.673D-01 0.236D+00-0.746D+00 0.157D+01
 Gap=     0.355 Goal=   None    Shift=    0.000
 RMSDP=2.67D-08 MaxDP=5.65D-07 DE=-4.05D-11 OVMax= 4.18D-07

 Cycle  13  Pass 1  IDiag  3:
 E=-0.498254947268151     Delta-E=        0.000000000006 Rises=F Damp=F
 DIIS: error= 2.31D-08 at cycle  13 NSaved=  13.
 NSaved=13 IEnMin=12 EnMin=-0.498254947274063     IErMin=13 ErrMin= 2.31D-08
 ErrMax= 2.31D-08  0.00D+00 EMaxC= 1.00D-01 BMatC= 3.91D-14 BMatP= 4.13D-13
 IDIUse=1 WtCom= 1.00D+00 WtEn= 0.00D+00
 Coeff-Com: -0.579D-06 0.371D-05-0.706D-05 0.290D-04-0.865D-04 0.119D-03
 Coeff-Com:  0.231D-03-0.288D-02 0.149D-01-0.594D-01 0.236D+00-0.754D+00
 Coeff-Com:  0.157D+01
 Coeff:     -0.579D-06 0.371D-05-0.706D-05 0.290D-04-0.865D-04 0.119D-03
 Coeff:      0.231D-03-0.288D-02 0.149D-01-0.594D-01 0.236D+00-0.754D+00
 Coeff:      0.157D+01
 Gap=     0.355 Goal=   None    Shift=    0.000
 RMSDP=8.34D-09 MaxDP=2.02D-07 DE= 5.91D-12 OVMax= 1.26D-07

 Cycle  14  Pass 2  IDiag  1:
 SCF Done:  E(RPM6) = -0.498254947268     A.U. after   14 cycles
            NFock= 13  Conv=0.83D-08     -V/T= 0.9984
 KE=-3.037250854223D+02 PE=-2.346165004461D+03 EE= 1.278003596571D+03
 Leave Link  502 at Tue Jun 22 14:17:16 2021, MaxMem=  2147483648 cpu:               0.5 elap:               0.0
 (Enter /home/matma/Programs/gaussian/G16_x86_SSE4/tar/g16/l601.exe)
 Copying SCF densities to generalized density rwf, IOpCl= 0 IROHF=0.

 **********************************************************************

            Population analysis using the SCF Density.

 **********************************************************************

 Orbital symmetries:
       Occupied  (A) (A) (A) (A) (A) (A) (A) (A) (A) (A) (A) (A)
                 (A) (A) (A) (A) (A) (A) (A) (A) (A) (A) (A) (A)
                 (A) (A) (A) (A) (A) (A) (A) (A) (A) (A) (A) (A)
                 (A) (A) (A) (A) (A) (A) (A) (A) (A) (A) (A) (A)
                 (A) (A) (A) (A) (A) (A) (A) (A) (A) (A) (A) (A)
                 (A) (A) (A) (A) (A) (A) (A) (A)
       Virtual   (A) (A) (A) (A) (A) (A) (A) (A) (A) (A) (A) (A)
                 (A) (A) (A) (A) (A) (A) (A) (A) (A) (A) (A) (A)
                 (A) (A) (A) (A) (A) (A) (A) (A) (A) (A) (A) (A)
                 (A) (A) (A) (A) (A) (A) (A) (A) (A) (A)
 The electronic state is 1-A.
 Alpha  occ. eigenvalues --   -1.25407  -1.15797  -1.14474  -1.14256  -1.11343
 Alpha  occ. eigenvalues --   -1.10878  -1.10239  -1.10070  -1.08043  -1.07250
 Alpha  occ. eigenvalues --   -1.06319  -1.02593  -1.00603  -0.99498  -0.97501
 Alpha  occ. eigenvalues --   -0.92022  -0.89243  -0.86468  -0.85183  -0.81269
 Alpha  occ. eigenvalues --   -0.79709  -0.79081  -0.77382  -0.74072  -0.70904
 Alpha  occ. eigenvalues --   -0.70026  -0.69787  -0.68156  -0.67741  -0.66077
 Alpha  occ. eigenvalues --   -0.65341  -0.64631  -0.63442  -0.62767  -0.61115
 Alpha  occ. eigenvalues --   -0.60338  -0.59799  -0.58757  -0.57267  -0.56853
 Alpha  occ. eigenvalues --   -0.56223  -0.55853  -0.54202  -0.53462  -0.53297
 Alpha  occ. eigenvalues --   -0.52744  -0.52040  -0.50972  -0.50555  -0.49730
 Alpha  occ. eigenvalues --   -0.48855  -0.48111  -0.47769  -0.47018  -0.46114
 Alpha  occ. eigenvalues --   -0.44827  -0.44238  -0.43678  -0.42982  -0.41874
 Alpha  occ. eigenvalues --   -0.40422  -0.39876  -0.39704  -0.39508  -0.38880
 Alpha  occ. eigenvalues --   -0.38528  -0.36637  -0.34348
 Alpha virt. eigenvalues --    0.00853   0.02223   0.04257   0.04783   0.05683
 Alpha virt. eigenvalues --    0.06175   0.07310   0.07679   0.07807   0.08101
 Alpha virt. eigenvalues --    0.08587   0.08743   0.08969   0.09627   0.09833
 Alpha virt. eigenvalues --    0.10286   0.10499   0.10611   0.11655   0.11940
 Alpha virt. eigenvalues --    0.12496   0.12886   0.13229   0.13845   0.14351
 Alpha virt. eigenvalues --    0.14745   0.15497   0.15707   0.16283   0.16748
 Alpha virt. eigenvalues --    0.17134   0.17335   0.17645   0.17846   0.18182
 Alpha virt. eigenvalues --    0.18272   0.18604   0.18638   0.19012   0.19499
 Alpha virt. eigenvalues --    0.19552   0.20017   0.20230   0.21091   0.22008
 Alpha virt. eigenvalues --    0.22516
          Condensed to atoms (all electrons):
               1          2          3          4          5          6
     1  O    6.543782   0.000000   0.000000   0.000000   0.000000   0.000000
     2  C    0.000000   3.906990   0.000000   0.000000   0.000000   0.000000
     3  C    0.000000   0.000000   3.958829   0.000000   0.000000   0.000000
     4  O    0.000000   0.000000   0.000000   6.533715   0.000000   0.000000
     5  C    0.000000   0.000000   0.000000   0.000000   4.016676   0.000000
     6  C    0.000000   0.000000   0.000000   0.000000   0.000000   3.665503
     7  O    0.000000   0.000000   0.000000   0.000000   0.000000   0.000000
     8  C    0.000000   0.000000   0.000000   0.000000   0.000000   0.000000
     9  C    0.000000   0.000000   0.000000   0.000000   0.000000   0.000000
    10  O    0.000000   0.000000   0.000000   0.000000   0.000000   0.000000
    11  O    0.000000   0.000000   0.000000   0.000000   0.000000   0.000000
    12  C    0.000000   0.000000   0.000000   0.000000   0.000000   0.000000
    13  C    0.000000   0.000000   0.000000   0.000000   0.000000   0.000000
    14  C    0.000000   0.000000   0.000000   0.000000   0.000000   0.000000
    15  C    0.000000   0.000000   0.000000   0.000000   0.000000   0.000000
    16  O    0.000000   0.000000   0.000000   0.000000   0.000000   0.000000
    17  C    0.000000   0.000000   0.000000   0.000000   0.000000   0.000000
    18  C    0.000000   0.000000   0.000000   0.000000   0.000000   0.000000
    19  O    0.000000   0.000000   0.000000   0.000000   0.000000   0.000000
    20  O    0.000000   0.000000   0.000000   0.000000   0.000000   0.000000
    21  O    0.000000   0.000000   0.000000   0.000000   0.000000   0.000000
    22  O    0.000000   0.000000   0.000000   0.000000   0.000000   0.000000
    23  O    0.000000   0.000000   0.000000   0.000000   0.000000   0.000000
    24  H    0.000000   0.000000   0.000000   0.000000   0.000000   0.000000
    25  H    0.000000   0.000000   0.000000   0.000000   0.000000   0.000000
    26  H    0.000000   0.000000   0.000000   0.000000   0.000000   0.000000
    27  H    0.000000   0.000000   0.000000   0.000000   0.000000   0.000000
    28  H    0.000000   0.000000   0.000000   0.000000   0.000000   0.000000
    29  H    0.000000   0.000000   0.000000   0.000000   0.000000   0.000000
    30  H    0.000000   0.000000   0.000000   0.000000   0.000000   0.000000
    31  H    0.000000   0.000000   0.000000   0.000000   0.000000   0.000000
    32  H    0.000000   0.000000   0.000000   0.000000   0.000000   0.000000
    33  H    0.000000   0.000000   0.000000   0.000000   0.000000   0.000000
    34  H    0.000000   0.000000   0.000000   0.000000   0.000000   0.000000
    35  H    0.000000   0.000000   0.000000   0.000000   0.000000   0.000000
    36  H    0.000000   0.000000   0.000000   0.000000   0.000000   0.000000
    37  H    0.000000   0.000000   0.000000   0.000000   0.000000   0.000000
    38  H    0.000000   0.000000   0.000000   0.000000   0.000000   0.000000
    39  H    0.000000   0.000000   0.000000   0.000000   0.000000   0.000000
    40  H    0.000000   0.000000   0.000000   0.000000   0.000000   0.000000
    41  H    0.000000   0.000000   0.000000   0.000000   0.000000   0.000000
    42  H    0.000000   0.000000   0.000000   0.000000   0.000000   0.000000
    43  H    0.000000   0.000000   0.000000   0.000000   0.000000   0.000000
    44  H    0.000000   0.000000   0.000000   0.000000   0.000000   0.000000
    45  H    0.000000   0.000000   0.000000   0.000000   0.000000   0.000000
               7          8          9         10         11         12
     1  O    0.000000   0.000000   0.000000   0.000000   0.000000   0.000000
     2  C    0.000000   0.000000   0.000000   0.000000   0.000000   0.000000
     3  C    0.000000   0.000000   0.000000   0.000000   0.000000   0.000000
     4  O    0.000000   0.000000   0.000000   0.000000   0.000000   0.000000
     5  C    0.000000   0.000000   0.000000   0.000000   0.000000   0.000000
     6  C    0.000000   0.000000   0.000000   0.000000   0.000000   0.000000
     7  O    6.432235   0.000000   0.000000   0.000000   0.000000   0.000000
     8  C    0.000000   3.893341   0.000000   0.000000   0.000000   0.000000
     9  C    0.000000   0.000000   4.050630   0.000000   0.000000   0.000000
    10  O    0.000000   0.000000   0.000000   6.527448   0.000000   0.000000
    11  O    0.000000   0.000000   0.000000   0.000000   6.535167   0.000000
    12  C    0.000000   0.000000   0.000000   0.000000   0.000000   3.945129
    13  C    0.000000   0.000000   0.000000   0.000000   0.000000   0.000000
    14  C    0.000000   0.000000   0.000000   0.000000   0.000000   0.000000
    15  C    0.000000   0.000000   0.000000   0.000000   0.000000   0.000000
    16  O    0.000000   0.000000   0.000000   0.000000   0.000000   0.000000
    17  C    0.000000   0.000000   0.000000   0.000000   0.000000   0.000000
    18  C    0.000000   0.000000   0.000000   0.000000   0.000000   0.000000
    19  O    0.000000   0.000000   0.000000   0.000000   0.000000   0.000000
    20  O    0.000000   0.000000   0.000000   0.000000   0.000000   0.000000
    21  O    0.000000   0.000000   0.000000   0.000000   0.000000   0.000000
    22  O    0.000000   0.000000   0.000000   0.000000   0.000000   0.000000
    23  O    0.000000   0.000000   0.000000   0.000000   0.000000   0.000000
    24  H    0.000000   0.000000   0.000000   0.000000   0.000000   0.000000
    25  H    0.000000   0.000000   0.000000   0.000000   0.000000   0.000000
    26  H    0.000000   0.000000   0.000000   0.000000   0.000000   0.000000
    27  H    0.000000   0.000000   0.000000   0.000000   0.000000   0.000000
    28  H    0.000000   0.000000   0.000000   0.000000   0.000000   0.000000
    29  H    0.000000   0.000000   0.000000   0.000000   0.000000   0.000000
    30  H    0.000000   0.000000   0.000000   0.000000   0.000000   0.000000
    31  H    0.000000   0.000000   0.000000   0.000000   0.000000   0.000000
    32  H    0.000000   0.000000   0.000000   0.000000   0.000000   0.000000
    33  H    0.000000   0.000000   0.000000   0.000000   0.000000   0.000000
    34  H    0.000000   0.000000   0.000000   0.000000   0.000000   0.000000
    35  H    0.000000   0.000000   0.000000   0.000000   0.000000   0.000000
    36  H    0.000000   0.000000   0.000000   0.000000   0.000000   0.000000
    37  H    0.000000   0.000000   0.000000   0.000000   0.000000   0.000000
    38  H    0.000000   0.000000   0.000000   0.000000   0.000000   0.000000
    39  H    0.000000   0.000000   0.000000   0.000000   0.000000   0.000000
    40  H    0.000000   0.000000   0.000000   0.000000   0.000000   0.000000
    41  H    0.000000   0.000000   0.000000   0.000000   0.000000   0.000000
    42  H    0.000000   0.000000   0.000000   0.000000   0.000000   0.000000
    43  H    0.000000   0.000000   0.000000   0.000000   0.000000   0.000000
    44  H    0.000000   0.000000   0.000000   0.000000   0.000000   0.000000
    45  H    0.000000   0.000000   0.000000   0.000000   0.000000   0.000000
              13         14         15         16         17         18
     1  O    0.000000   0.000000   0.000000   0.000000   0.000000   0.000000
     2  C    0.000000   0.000000   0.000000   0.000000   0.000000   0.000000
     3  C    0.000000   0.000000   0.000000   0.000000   0.000000   0.000000
     4  O    0.000000   0.000000   0.000000   0.000000   0.000000   0.000000
     5  C    0.000000   0.000000   0.000000   0.000000   0.000000   0.000000
     6  C    0.000000   0.000000   0.000000   0.000000   0.000000   0.000000
     7  O    0.000000   0.000000   0.000000   0.000000   0.000000   0.000000
     8  C    0.000000   0.000000   0.000000   0.000000   0.000000   0.000000
     9  C    0.000000   0.000000   0.000000   0.000000   0.000000   0.000000
    10  O    0.000000   0.000000   0.000000   0.000000   0.000000   0.000000
    11  O    0.000000   0.000000   0.000000   0.000000   0.000000   0.000000
    12  C    0.000000   0.000000   0.000000   0.000000   0.000000   0.000000
[...]
 5840,0.00038563,-0.00044528,0.00057484,-0.00007238,-0.00315197,-0.0031
 8530,-0.00033787,0.00063618,-0.00079156,0.00004546,0.00009787,-0.00016
 888,-0.00012536,-0.00007993,-0.00001506,-0.00007249,-0.00017724,0.0001
 5672,-0.00001636,0.00015943,0.00010754,0.00017498,-0.00017596,-0.00011
 827,-0.00018076,-0.00057494,-0.00031870,-0.00020387,-0.00029678,-0.000
 13223,0.00013204,-0.00017500,-0.00001551,0.00029767,0.00196163,0.00216
 275,-0.00103043,0.00124941,0.00101995,-0.00039224,0.00007245,0.0003403
 4,0.00038706,0.00016799,0.00003609,-0.00007881,-0.00006958,-0.00004785
 ,0.00004490,-0.00013155,-0.00004349,0.00017523,-0.00002324,0.00008534,
 -0.00021959,-0.00014706,-0.00003828,-0.00006371,-0.00369687,0.00021875
 ,-0.00074404,0.00016324,-0.00008524,-0.00012273,0.07725504,0.00050737,
 -0.00038410,-0.00041415,-0.00022830,-0.00036859,0.00017430,0.00002878,
 0.00043736,-0.00002979,0.00018487,-0.00044836,0.00001645,-0.00001453,-
 0.00036645,0.00011000,0.00113374,0.00439599,-0.00087071,0.00465703,-0.
 00514254,-0.00149564,-0.00132335,0.00080673,0.00140536,-0.00634463,-0.
 00085195,0.00126586,0.00171001,0.00568160,-0.00757584,-0.07380787,-0.1
 1721253,0.01062170,-0.01608057,-0.04076386,-0.00996948,0.00320044,-0.0
 0126408,-0.00170001,-0.00014437,-0.00032835,0.00033603,0.00012918,-0.0
 0111686,-0.00045706,0.00000334,0.00167876,0.00083541,-0.00058339,-0.00
 192297,-0.00227579,-0.00023118,0.00171834,0.00043874,-0.00047131,-0.00
 251165,-0.00019760,-0.00003144,0.00044733,0.00078595,-0.00038030,0.000
 75390,-0.00006076,-0.00282447,-0.00247642,0.00024722,-0.00004454,-0.00
 042991,0.00004552,-0.00002456,-0.00007791,-0.00000790,-0.00003275,-0.0
 0003392,-0.00003621,-0.00001644,0.00017312,-0.00000766,-0.00001698,0.0
 0006455,0.00003528,0.00035251,-0.00018392,-0.00000231,-0.00060949,-0.0
 0020001,-0.00021916,0.00047743,-0.00042494,0.00020401,0.00028959,0.000
 12483,0.00050767,0.00361632,0.00181410,0.00319055,0.00057510,0.0027233
 2,-0.00091963,0.00008796,-0.00045354,0.00023765,0.00018212,0.00006205,
 -0.00016318,-0.00004355,-0.00009175,0.00009748,0.00008572,-0.00008466,
 0.00026488,-0.00004117,-0.00002445,-0.00019564,-0.00012524,-0.00028381
 ,-0.00003380,-0.00054061,0.00200236,-0.00055768,0.00016497,-0.00024509
 ,-0.00010749,0.08655262,0.15434148,-0.00024425,0.00003668,0.00010737,-
 0.00019809,-0.00029983,-0.00012679,0.00012316,-0.00005171,-0.00004134,
 -0.00024531,0.00013346,-0.00000444,-0.00000135,0.00023694,-0.00019408,
 0.00028929,-0.00349211,0.00133345,0.00116382,0.00137830,-0.00391907,0.
 00116585,0.00203289,-0.00013698,0.00269763,0.00068823,-0.00135168,-0.0
 0083988,-0.00157955,0.00021791,0.03717832,0.02709566,-0.03503710,-0.01
 940167,-0.02974952,0.00109522,-0.00123732,-0.00089026,-0.00057946,0.00
 009834,-0.00005028,-0.00031941,-0.00035000,0.00066444,0.00002326,-0.00
 123427,-0.00175829,-0.00087821,0.00136705,-0.00306703,-0.00343845,-0.0
 0001090,-0.00096990,-0.00018384,0.00140928,0.00089615,0.00003951,0.000
 08163,-0.00012239,-0.00025632,0.00015551,-0.00011934,0.00002784,0.0009
 3129,0.00158178,-0.00020161,-0.00031057,0.00040371,-0.00009909,-0.0000
 5582,0.00008666,0.00007908,0.00001615,0.00001808,0.00009992,0.00007807
 ,-0.00007179,0.00002413,0.00003589,-0.00005007,-0.00005094,-0.00031397
 ,0.00028099,0.00032626,-0.00017522,-0.00005322,0.00053893,-0.00013203,
 0.00024342,-0.00003716,0.00003638,0.00020207,-0.00029408,-0.00214755,0
 .00138204,-0.00201919,-0.00075824,-0.00179616,-0.00030746,-0.00009744,
 0.00030266,0.00006049,-0.00009213,-0.00005606,0.00004570,0.00004430,0.
 00004318,-0.00002380,0.00029864,0.00006773,-0.00014858,-0.00007638,-0.
 00001401,0.00003065,-0.00002370,0.00010517,-0.00004344,-0.00079253,-0.
 00015110,0.00104771,-0.00006773,0.00005815,0.00002058,-0.01838807,0.00
 665724,0.04453735,-0.00015452,0.00020681,-0.00014096,0.00064702,0.0006
 5336,0.00024660,-0.00301027,0.00290941,-0.00253505,0.00004780,0.000048
 59,0.00036821,0.00481937,0.02979497,0.00201873,-0.00175761,0.00615895,
 -0.00169894,-0.00044351,-0.00134806,0.00077263,0.00058671,0.00042364,-
 0.00009226,0.00012529,-0.00014732,-0.00002339,-0.00018957,-0.00018149,
 0.00007638,0.00007060,-0.00034326,-0.00008113,0.00001943,0.00021390,0.
 00014263,-0.00064823,-0.00036183,0.00003465,-0.00008644,0.00002288,-0.
 00007704,-0.00028645,-0.00003467,-0.00031627,0.00018711,-0.00008261,0.
 00008137,-0.00002342,-0.00008528,0.00000948,0.00001726,0.00012003,0.00
 002679,0.00003985,-0.00013276,-0.00000922,0.00010836,0.00010049,0.0002
 5329,0.00041812,0.00022045,-0.00002045,0.00133400,-0.00158992,0.000365
 68,-0.04866484,-0.07447599,-0.01877066,-0.00022520,0.00010847,-0.00005
 430,-0.00022815,-0.00010483,-0.00025764,-0.00000174,-0.00013402,-0.000
 34504,0.00007482,0.00087212,-0.00043085,-0.00020296,0.00007303,0.00013
 895,-0.00002628,-0.00003588,-0.00002360,0.00003078,-0.00000107,-0.0000
 0593,0.00001692,0.00001618,-0.00001921,0.00003221,0.00012392,-0.000003
 87,0.00005412,0.00003077,-0.00008149,0.00000208,0.00006680,0.00002527,
 -0.00011643,-0.00004622,-0.00005786,0.00003260,-0.00001332,0.00005482,
 -0.00001458,0.00000564,0.00002050,-0.00000569,0.00000298,-0.00002890,-
 0.00001691,-0.00001918,0.00000595,-0.00005710,0.00005142,0.00000327,-0
 .00012203,-0.00019262,0.00002414,0.00005345,0.00021533,-0.00006376,0.0
 4759165,0.00000612,0.00036473,-0.00037615,0.00001287,-0.00042412,0.000
 26794,0.00095760,-0.00337842,0.00212557,0.00100369,0.00034471,-0.00054
 276,0.00133517,-0.04481383,0.00329859,0.00423877,0.00044640,-0.0007720
 2,-0.00171486,0.00112658,0.00034993,-0.00023095,-0.00045863,-0.0001848
 9,0.00041285,0.00008361,-0.00002980,-0.00044722,-0.00006022,0.00003822
 ,-0.00030331,-0.00036490,-0.00004361,-0.00003539,0.00009727,0.00015551
 ,0.00066936,0.00015834,-0.00036745,-0.00042042,0.00026778,-0.00034069,
 -0.00014706,0.00029448,0.00000436,0.00012707,-0.00043239,-0.00003701,0
 .00004802,0.00020481,0.00018854,-0.00001089,0.00006254,0.00001984,-0.0
 0015459,-0.00012354,-0.00006239,0.00014774,-0.00015295,-0.00010678,0.0
 0080999,-0.00049465,0.00005453,-0.00076532,-0.00169859,0.00033406,-0.0
 4088870,-0.18028548,-0.00296939,-0.00002668,-0.00011953,-0.00005630,0.
 00006371,0.00017006,-0.00017348,-0.00061915,0.00001977,0.00005677,-0.0
 0088982,0.00150389,0.00140095,-0.00016471,-0.00019693,-0.00038732,0.00
 003052,-0.00005660,-0.00006591,-0.00004616,-0.00005618,-0.00002323,0.0
 0000459,-0.00002059,0.00006265,0.00019763,0.00007551,0.00007581,0.0001
 2452,0.00005315,-0.00002006,-0.00004906,0.00011119,-0.00006628,-0.0002
 3682,0.00004001,0.00009149,0.00000704,0.00002076,-0.00000395,-0.000016
 08,0.00000139,-0.00003493,0.00001712,0.00000725,0.00000919,0.00001609,
 0.00000352,0.00000044,0.00009817,0.00001063,0.00001939,-0.00044249,0.0
 0005165,0.00011964,0.00039330,0.00017884,-0.00017303,0.03703585,0.2276
 1748,0.00015137,-0.00012291,-0.00034934,0.00038756,0.00048604,0.000361
 83,-0.00279433,0.00208356,-0.00095790,0.00036443,-0.00065102,-0.000164
 57,0.00470707,0.02137618,-0.00259118,0.00113575,-0.00092174,0.00130076
 ,0.00000372,0.00024680,-0.00028795,-0.00013678,-0.00023057,-0.00009086
 ,0.00007332,0.00005320,-0.00002261,-0.00005123,0.00002957,-0.00003506,
 -0.00011365,-0.00002501,-0.00007691,0.00006289,0.00005408,-0.00002896,
 0.00012565,-0.00012957,-0.00009334,0.00011257,-0.00020484,0.00006345,0
 .00001641,0.00008642,0.00012016,-0.00000481,-0.00005538,-0.00007482,0.
 00002045,0.00006459,0.00003540,0.00000136,-0.00000507,-0.00001375,-0.0
 0003764,-0.00000677,-0.00004293,0.00004516,-0.00004947,-0.00019728,-0.
 00023188,0.00001531,-0.00022593,-0.00024789,0.00005829,-0.00083263,-0.
 02249366,-0.02262086,-0.01172670,-0.00010904,0.00007665,-0.00004311,-0
 .00021306,-0.00015673,-0.00002355,-0.00002032,0.00046029,0.00015795,-0
 .00141828,0.00221881,-0.00043387,0.00029147,-0.00018262,-0.00009482,0.
 00001673,-0.00002642,0.00001003,-0.00002071,-0.00000803,-0.00000266,-0
 .00000968,0.00000936,0.00004454,0.00003992,-0.00000536,0.00003409,-0.0
 0002184,0.00001497,0.00004472,0.00014881,-0.00002060,0.00010483,-0.000
 16892,-0.00000360,0.00014431,-0.00000837,-0.00000306,0.00000294,0.0000
 0221,-0.00000380,0.00000558,-0.00000379,0.00000152,0.00002238,0.000003
 23,0.00000319,0.00000251,0.00003761,-0.00000721,0.00002884,0.00002786,
 0.00004105,0.00006409,0.00007156,-0.00001804,0.00001544,0.02048520,-0.
 00204622,0.01567106,-0.00001339,0.00007296,0.00001041,0.00002263,0.000
 00027,-0.00000136,-0.00003380,-0.00003222,0.00002131,0.00003548,0.0000
 5545,0.00000681,0.00001454,0.00000938,0.00003055,-0.00001508,-0.000354
 39,0.00002869,-0.00010808,0.00023103,0.00003208,-0.00006341,-0.0000791
 8,-0.00002055,0.00013983,0.00002788,-0.00001901,-0.00018353,-0.0000568
 5,0.00000909,-0.00032476,0.00003892,0.00004590,0.00026377,-0.00021965,
 -0.00008720,-0.00030109,-0.00010581,-0.00005615,-0.00035683,-0.0017202
 6,-0.00184667,-0.00110225,0.00222313,0.00291253,-0.00087061,-0.0015203
 9,0.00043184,-0.00020320,0.00128512,0.00017059,-0.00002783,0.00025009,
 0.00004260,-0.00018833,-0.00028681,-0.00022338,-0.00090394,0.00530856,
 -0.01584303,-0.00018283,-0.00009059,0.00037436,-0.00009167,0.00016347,
 0.00011970,0.00000910,0.00009227,0.00004238,-0.00000643,-0.00001014,-0
 .00000477,-0.00000115,0.00000419,-0.00001294,-0.00002286,-0.00002986,-
 0.00001470,-0.00002962,-0.00004168,-0.00004788,0.00000649,0.00004335,-
 0.00001065,0.00000742,-0.00000058,-0.00000876,-0.00001165,-0.00000580,
 -0.00000289,0.00000569,-0.00001241,-0.00000088,0.00012626,0.00006075,0
 .00002313,0.00004773,-0.00001353,-0.00007941,0.00002132,0.00002751,-0.
 00002449,-0.00042715,-0.00041944,-0.00085789,0.00052263,0.00138733,0.0
 0236533,-0.00000428,-0.00019133,-0.00001621,0.00004829,0.00011553,0.00
 003923,-0.00002218,0.00005492,0.00003347,0.00008655,0.00000035,0.00013
 122,0.00006750,0.00008397,-0.00016115,0.00009109,0.00002739,-0.0000438
 6,-0.00003716,-0.00007430,-0.00005238,0.00401736,0.00002292,0.00002308
 ,0.00006076,-0.00000798,0.00001169,-0.00005183,0.00000212,0.00000303,0
 .00001160,0.00001455,-0.00000954,0.00002353,-0.00002967,0.00000147,-0.
 00000734,-0.00006439,0.00020076,0.00002460,0.00004124,-0.00006828,0.00
 009444,0.00002333,0.00000672,0.00001528,-0.00004009,0.00001508,0.00002
 242,0.00007392,0.00002183,0.00005003,0.00015870,-0.00011895,0.00012810
 ,-0.00026958,0.00018077,0.00000811,-0.00011895,0.00016745,-0.00018479,
 0.00040069,-0.00173316,-0.00180501,-0.00254143,0.01476136,-0.02852164,
 -0.00004056,-0.00071690,0.00156813,0.00033938,-0.00091289,0.00011567,-
 0.00006644,-0.00007972,0.00006339,0.00003286,0.00006951,0.00022603,0.0
 0890727,-0.08156117,0.09300579,-0.00047152,0.00002444,0.00015926,-0.00
 005268,-0.00032384,0.00006614,0.00000914,-0.00006679,0.00004770,-0.000
 00034,-0.00000481,0.00000319,-0.00000059,-0.00000102,-0.00000790,-0.00
 001121,0.00000575,-0.00001005,-0.00002537,-0.00000711,-0.00004317,0.00
 001027,0.00000390,0.00000166,0.00000182,0.00000022,-0.00000839,0.00000
 336,-0.00000976,-0.00000244,-0.00000644,-0.00002340,-0.00003049,-0.000
 05931,-0.00005305,-0.00006251,0.00000681,-0.00004312,-0.00019141,0.000
 07130,-0.00005674,0.00002009,0.00007408,0.00020861,-0.00035071,-0.0003
 6039,-0.00329422,-0.00350734,-0.00005743,0.00023687,0.00007044,0.00013
 407,-0.00015183,-0.00019079,0.00005932,-0.00001190,-0.00000633,-0.0000
 3524,0.00002015,-0.00012060,0.00014048,-0.00010703,-0.00001621,-0.0000
 2284,0.00004404,-0.00003048,0.00002147,0.00003717,-0.00002426,-0.00625
 171,0.07332254,0.00005808,0.00000037,-0.00019433,0.00002934,0.00000375
 ,0.00014324,-0.00011405,-0.00005637,0.00003863,0.00016230,-0.00000169,
 -0.00010826,-0.00003653,0.00016566,0.00000384,-0.00014694,-0.00063916,
 -0.00012960,0.00011505,0.00036343,-0.00017531,-0.00012962,-0.00022455,
 0.00000599,-0.00004121,0.00002797,0.00001448,0.00006913,0.00020807,-0.
 00011185,0.00013669,0.00065655,0.00015970,0.00009898,-0.00031563,-0.00
 024012,-0.00011957,-0.00047249,0.00017921,-0.00138758,0.00132217,-0.00
 089684,-0.00166538,0.00482895,-0.05627721,0.00209260,-0.00052424,-0.00
 014021,-0.00079676,-0.00044407,-0.00149466,0.00016718,-0.00015400,0.00
 014840,-0.00016528,0.00056386,-0.00004311,-0.01166726,0.05724208,-0.15
 150022,0.00071150,-0.00071976,0.00069337,0.00062844,0.00075382,0.00000
 389,0.00014446,-0.00002584,-0.00007975,-0.00000573,-0.00001879,-0.0000
 1960,-0.00001030,0.00000570,-0.00001045,-0.00004875,0.00002823,0.00002
 166,0.00001987,0.00000935,0.00010226,0.00000713,0.00002359,-0.00002959
 ,0.00000518,0.00001181,-0.00000879,-0.00000722,-0.00002366,0.00000459,
 0.00000086,0.00000013,0.00006489,-0.00003386,-0.00013831,0.00008128,-0
 .00009586,-0.00008016,0.00024399,-0.00001956,0.00004814,-0.00013824,-0
 .00062749,-0.00014184,0.00037901,0.00052873,-0.00185027,-0.00348893,0.
 00007285,0.00008207,-0.00009760,-0.00001501,0.00005986,0.00034222,0.00
 005730,0.00003737,-0.00000821,0.00011959,-0.00012109,-0.00004596,-0.00
 035900,0.00039960,-0.00003750,-0.00015676,-0.00029908,0.00013114,-0.00
 010272,-0.00000318,0.00007520,0.01256726,-0.06059903,0.21236612,-0.158
 76784,0.03979488,0.07989283,0.00362728,-0.00289343,0.00693438,0.004082
 95,0.00013696,-0.00409412,-0.00196927,-0.00117237,0.00183075,-0.000149
 23,-0.00072534,0.00033489,0.00044419,-0.00150240,0.00041330,0.00002540
 ,0.00141155,-0.00048735,-0.00151205,-0.00121452,-0.00169324,-0.0010240
 2,0.00020284,0.00017534,0.00068672,0.00021265,-0.00005404,0.00016855,0
 .00025633,-0.00000795,0.00004401,-0.00007030,-0.00008064,-0.00016893,-
 0.00009486,0.00006998,0.00005409,-0.00003780,0.00006024,-0.00002407,-0
 .00015181,-0.00009023,0.00002322,0.00017766,0.00003740,-0.00003970,-0.
 00009291,-0.00008339,0.00000569,-0.00004509,-0.00002270,0.00016804,0.0
 0008794,0.00004456,0.00000320,0.00009509,0.00012304,-0.00004029,0.0001
 4731,-0.00002881,0.00015096,0.00067441,0.00001139,-0.00051770,0.000558
 77,0.00013676,0.00015165,0.00114419,-0.00249696,-0.00056827,0.00018494
 ,0.00052314,0.00036151,0.00003580,0.00121135,0.00022648,-0.00012274,-0
 .00004075,-0.00006216,0.00003653,0.00005829,0.00051854,0.00022283,0.00
 004536,0.00000825,0.00011405,0.00003118,0.00002016,-0.00001979,-0.0000
 8120,-0.00019419,-0.00015606,-0.00010058,-0.00006743,-0.00005496,0.000
 03667,-0.00000538,-0.00002096,0.00002955,0.00001961,-0.00001698,-0.000
 02476,-0.00000092,-0.00001142,0.00002240,0.00000155,-0.00000054,0.0000
 2811,-0.00002092,-0.00000366,-0.00001414,-0.00002305,-0.00000130,0.000
 00110,-0.00010021,-0.00000855,-0.00000163,0.00002582,-0.00006296,-0.00
 001799,-0.00022544,-0.00022023,0.00013175,0.00001035,-0.00007259,-0.00
 017400,-0.00000033,-0.00001492,-0.00004046,0.15465406,0.04005753,-0.00
 970761,-0.01849302,-0.00159744,-0.00296753,-0.00186474,-0.00107312,0.0
 0075979,0.00446332,-0.00034710,-0.00086370,-0.00126216,0.00020138,-0.0
 0049717,0.00013690,-0.00104526,0.00097384,-0.00007444,0.00046090,-0.00
 158802,-0.00018964,0.00004837,0.00143520,0.00278856,0.00048710,-0.0002
 0792,0.00004771,-0.00039529,-0.00028775,0.00001971,-0.00001311,-0.0003
 0337,-0.00009556,-0.00002871,0.00018744,0.00009643,-0.00024223,-0.0000
 5816,0.00007567,0.00006199,-0.00001827,-0.00001907,-0.00012726,0.00005
 582,-0.00004339,0.00009836,-0.00008829,-0.00001539,-0.00000832,0.00000
 948,0.00003016,0.00000834,0.00010277,0.00001728,-0.00002862,-0.0001522
 2,-0.00006065,0.00007263,0.00000797,-0.00001089,0.00006147,0.00003734,
 -0.00003229,0.00035381,-0.00018194,-0.00024992,0.00011216,0.00040216,-
 0.00061178,-0.00047005,0.00027200,-0.00200067,0.00015742,-0.00000165,0
 .00003900,0.00038155,-0.00038466,-0.00013497,-0.00014322,-0.00053592,0
 .00056912,0.00018810,-0.00003516,0.00001139,-0.00053531,-0.00003793,0.
 00006013,0.00008193,0.00003335,-0.00001813,0.00007197,0.00008674,0.000
 03968,0.00009943,0.00019287,0.00008225,-0.00003511,0.00001468,0.000027
 68,0.00002199,0.00000814,0.00002032,-0.00004156,-0.00001588,0.00003456
 ,0.00000559,-0.00000784,0.00001695,-0.00000342,0.00000343,0.00000725,-
 0.00001180,0.00000460,0.00000712,-0.00000620,-0.00001193,0.00000234,0.
 00000298,0.00004885,0.00002132,-0.00003144,-0.00002475,0.00001274,0.00
 006951,0.00024416,-0.00005003,-0.00016684,-0.00021570,0.00014945,-0.00
 004725,-0.00001057,0.00001044,-0.03670655,0.01332378,0.04622292,-0.010
 77441,-0.06727706,0.03941208,-0.00821182,-0.04322994,-0.00039653,0.002
 95975,-0.00373869,-0.00271184,0.00109643,-0.00445277,-0.00000796,0.000
 42406,-0.00033144,0.00032720,0.00060602,-0.00014579,-0.00068551,-0.000
 73534,0.00051174,-0.00009611,0.00006258,-0.00611402,0.00035971,-0.0000
 1040,0.00000018,-0.00069266,-0.00015859,0.00001544,-0.00016593,-0.0001
 6600,-0.00001219,-0.00000853,0.00004454,0.00005171,0.00025595,0.000070
 90,-0.00012605,-0.00005051,-0.00000706,-0.00002009,0.00007315,0.000105
 27,0.00013309,-0.00003802,-0.00010781,-0.00006981,0.00002987,0.0000914
 0,0.00006551,-0.00000249,0.00001559,0.00000011,-0.00013306,-0.00005683
 ,-0.00007253,-0.00001685,-0.00007171,-0.00016832,-0.00002228,-0.000098
 17,-0.00000832,-0.00042738,-0.00042125,0.00001776,0.00001190,-0.000690
 59,0.00000876,-0.00024268,-0.00106813,-0.00144756,0.00030539,-0.000471
 90,-0.00018194,-0.00032866,0.00046109,0.00106646,0.00002570,0.00019165
 ,0.00039515,-0.00003018,-0.00002973,-0.00005808,0.00071406,0.00010706,
 -0.00033012,0.00005218,-0.00011729,-0.00002307,0.00025054,-0.00007146,
 0.00010263,0.00015961,0.00013704,0.00017093,0.00004041,0.00003064,0.00
 002452,0.00000354,0.00001509,-0.00001999,-0.00001424,0.00001018,0.0000
 4042,-0.00000818,0.00000703,-0.00001955,-0.00000162,-0.00000138,-0.000
 01799,0.00000636,-0.00000127,0.00003688,0.00001489,0.00000278,0.000000
 70,0.00009315,0.00000664,0.00002160,-0.00000007,0.00004998,0.00001596,
 0.00018879,0.00013737,-0.00010909,0.00008469,0.00021246,0.00010025,-0.
 00000216,-0.00001348,0.00007327,-0.08254882,0.01643906,0.12512155\\-0.
 00001188,0.00001098,-0.00000826,-0.00001855,-0.00000185,0.00001701,-0.
 00001017,0.00000143,0.00001027,0.00002836,-0.00000092,0.00000168,-0.00
 001171,-0.00001809,0.00000558,-0.00000185,0.00002739,-0.00002547,0.000
 00700,-0.00002572,0.00001951,0.00001569,-0.00000879,0.00000116,-0.0000
 2262,-0.00001097,-0.00001413,-0.00002213,-0.00002481,-0.00003390,-0.00
 001258,-0.00000236,-0.00001369,-0.00002146,0.00001995,0.00000486,0.000
 02298,0.00001314,-0.00000417,-0.00003583,0.00000745,0.00001480,0.00001
 476,-0.00002555,-0.00002483,0.00001402,0.00001171,-0.00001943,-0.00003
 353,0.00000539,0.00002873,-0.00000063,-0.00001100,0.00001318,0.0000179
 4,0.00000072,0.00002758,-0.00002254,0.00002034,-0.00001008,0.00002698,
 -0.00000412,-0.00000357,-0.00000340,0.00000088,-0.00000009,-0.00000523
 ,-0.00001257,-0.00001060,-0.00000053,0.00000541,0.00000211,0.00000146,
 0.00000484,-0.00000012,-0.00000570,0.00000286,-0.00000910,-0.00000253,
 0.00000245,0.00000961,-0.00000101,-0.00000161,0.00000049,-0.00000309,0
 .00000198,0.00000343,0.00000038,0.00000456,0.00000776,0.00000019,0.000
 00276,0.00000476,0.00003440,0.00003614,0.00002685,-0.00000110,-0.00000
 190,-0.00000533,-0.00000185,-0.00000254,0.00000718,0.00001068,-0.00000
 184,-0.00000219,0.00000216,-0.00000538,0.00000742,0.00000762,0.0000060
 6,-0.00001351,0.00000285,0.00000007,-0.00000874,0.00000152,0.00000035,
 0.00000129,0.00001877,-0.00001647,-0.00001336,-0.00001321,-0.00000023,
 0.00000427,0.00000249,0.00000765,-0.00000621,0.00000298,0.00000543,0.0
 0001126,0.00001392,-0.00001708,0.00001430,0.00001597,-0.00000616,-0.00
 001832\\\@


 AND HERE I AM, FOR ALL MY LORE,
 THE WRETCHED FOOL I WAS BEFORE.
 CALLED MASTER OF ARTS, AND DOCTOR TO BOOT,
 FOR TEN YEARS ALMOST I CONFUTE
 AND UP AND DOWN, WHEREVER IT GOES
 I DRAG MY STUDENTS BY THE NOSE --
 AND SEE THAT FOR ALL OUR SCIENCE AND ART
 WE CAN KNOW NOTHING.  IT BURNS MY HEART.

                                       -- FAUST
 Job cpu time:       0 days  0 hours  0 minutes 11.0 seconds.
 Elapsed time:       0 days  0 hours  0 minutes  0.9 seconds.
 File lengths (MBytes):  RWF=    217 Int=      0 D2E=      0 Chk=      4 Scr=      1
 Normal termination of Gaussian 16 at Tue Jun 22 14:17:33 2021.
