 Entering Gaussian System, Link 0=g16
 Input=input.com
 Output=input.log
 Initial command:
 /home/matma/Programs/gaussian/G16_x86_SSE4/tar/g16/l1.exe "/scratch-data/gaussian/Gau-28195.inp" -scrdir="/scratch-data/gaussian/"
 Entering Link 1 = /home/matma/Programs/gaussian/G16_x86_SSE4/tar/g16/l1.exe PID=     28197.
  
 Copyright (c) 1988-2017, Gaussian, Inc.  All Rights Reserved.
  
 This is part of the Gaussian(R) 16 program.  It is based on
 the Gaussian(R) 09 system (copyright 2009, Gaussian, Inc.),
 the Gaussian(R) 03 system (copyright 2003, Gaussian, Inc.),
 the Gaussian(R) 98 system (copyright 1998, Gaussian, Inc.),
 the Gaussian(R) 94 system (copyright 1995, Gaussian, Inc.),
 the Gaussian 92(TM) system (copyright 1992, Gaussian, Inc.),
 the Gaussian 90(TM) system (copyright 1990, Gaussian, Inc.),
 the Gaussian 88(TM) system (copyright 1988, Gaussian, Inc.),
 the Gaussian 86(TM) system (copyright 1986, Carnegie Mellon
 University), and the Gaussian 82(TM) system (copyright 1983,
 Carnegie Mellon University). Gaussian is a federally registered
 trademark of Gaussian, Inc.
  
 This software contains proprietary and confidential information,
 including trade secrets, belonging to Gaussian, Inc.
  
 This software is provided under written license and may be
 used, copied, transmitted, or stored only in accord with that
 written license.
  
 The following legend is applicable only to US Government
 contracts under FAR:
  
                    RESTRICTED RIGHTS LEGEND
  
 Use, reproduction and disclosure by the US Government is
 subject to restrictions as set forth in subparagraphs (a)
 and (c) of the Commercial Computer Software - Restricted
 Rights clause in FAR 52.227-19.
  
 Gaussian, Inc.
 340 Quinnipiac St., Bldg. 40, Wallingford CT 06492
  
  
 ---------------------------------------------------------------
 Warning -- This program may not be used in any manner that
 competes with the business of Gaussian, Inc. or will provide
 assistance to any competitor of Gaussian, Inc.  The licensee
 of this program is prohibited from giving any competitor of
 Gaussian, Inc. access to this program.  By using this program,
 the user acknowledges that Gaussian, Inc. is engaged in the
 business of creating and licensing software in the field of
 computational chemistry and represents and warrants to the
 licensee that it is not a competitor of Gaussian, Inc. and that
 it will not use this program in any manner prohibited above.
 ---------------------------------------------------------------
  

 Cite this work as:
 Gaussian 16, Revision B.01,
 M. J. Frisch, G. W. Trucks, H. B. Schlegel, G. E. Scuseria, 
 M. A. Robb, J. R. Cheeseman, G. Scalmani, V. Barone, 
 G. A. Petersson, H. Nakatsuji, X. Li, M. Caricato, A. V. Marenich, 
 J. Bloino, B. G. Janesko, R. Gomperts, B. Mennucci, H. P. Hratchian, 
 J. V. Ortiz, A. F. Izmaylov, J. L. Sonnenberg, D. Williams-Young, 
 F. Ding, F. Lipparini, F. Egidi, J. Goings, B. Peng, A. Petrone, 
 T. Henderson, D. Ranasinghe, V. G. Zakrzewski, J. Gao, N. Rega, 
 G. Zheng, W. Liang, M. Hada, M. Ehara, K. Toyota, R. Fukuda, 
 J. Hasegawa, M. Ishida, T. Nakajima, Y. Honda, O. Kitao, H. Nakai, 
 T. Vreven, K. Throssell, J. A. Montgomery, Jr., J. E. Peralta, 
 F. Ogliaro, M. J. Bearpark, J. J. Heyd, E. N. Brothers, K. N. Kudin, 
 V. N. Staroverov, T. A. Keith, R. Kobayashi, J. Normand, 
 K. Raghavachari, A. P. Rendell, J. C. Burant, S. S. Iyengar, 
 J. Tomasi, M. Cossi, J. M. Millam, M. Klene, C. Adamo, R. Cammi, 
 J. W. Ochterski, R. L. Martin, K. Morokuma, O. Farkas, 
 J. B. Foresman, and D. J. Fox, Gaussian, Inc., Wallingford CT, 2016.
 
 ******************************************
 Gaussian 16:  ES64L-G16RevB.01 20-Dec-2017
                18-Jun-2021 
 ******************************************
 %nproc=12
 Will use up to   12 processors via shared memory.
 %mem=16GB
 -------------------------------------------------------------------
 #P PBE1PBE STO-3G opt freq int=(grid=99590) EmpiricalDispersion=GD3
 -------------------------------------------------------------------
 1/18=20,19=15,26=5,38=1/1,3;
 2/9=110,12=2,17=6,18=5,40=1/2;
 3/6=3,11=2,25=1,30=1,71=1,74=-13,75=99590,124=31/1,2,3;
 4//1;
 5/5=2,38=5/2;
 6/7=2,8=2,9=2,10=2,28=1/1;
 7//1,2,3,16;
 1/18=20,19=15,26=5/3(2);
 2/9=110/2;
 99//99;
 2/9=110/2;
 3/6=3,11=2,25=1,30=1,71=1,74=-13,75=99590,124=31/1,2,3;
 4/5=5,16=3,69=1/1;
 5/5=2,38=5/2;
 7//1,2,3,16;
 1/18=20,19=15,26=5/3(-5);
 2/9=110/2;
 6/7=2,8=2,9=2,10=2,19=2,28=1/1;
 99/9=1/99;
 Leave Link    1 at Fri Jun 18 19:03:44 2021, MaxMem=  2147483648 cpu:               0.3 elap:               0.0
 (Enter /home/matma/Programs/gaussian/G16_x86_SSE4/tar/g16/l101.exe)
 ----------
 initial-00
 ----------
 Symbolic Z-matrix:
 Charge =  0 Multiplicity = 1
 O                     2.529    -0.56      0.182 
 C                     3.089    -1.855    -0.144 
 C                     2.561    -2.349    -1.507 
 O                     2.973    -1.44     -2.541 
 C                     1.017    -2.455    -1.453 
 C                     0.499    -3.209    -0.167 
 O                     1.157    -2.795     1.045 
 C                     2.596    -2.861     0.921 
 C                     3.179    -2.552     2.313 
 O                     4.606    -2.512     2.159 
 O                    -0.925    -3.122    -0.008 
 C                    -1.624    -2.739     1.202 
 C                    -3.098    -2.266     1.079 
 C                    -3.663    -2.001     2.496 
 C                    -3.476    -3.229     3.425 
 O                    -2.112    -3.661     3.452 
 C                    -1.559    -3.971     2.168 
 C                    -0.12     -4.374     2.522 
 O                     0.529    -3.276     3.208 
 O                    -3.743    -2.801     4.747 
 O                    -5.039    -1.653     2.318 
 O                    -3.152    -1.039     0.337 
 O                     0.614    -3.131    -2.652 
 H                     4.192    -1.805    -0.146 
 H                     2.976    -3.361    -1.691 
 H                     2.517    -1.787    -3.36 
 H                     0.629    -1.422    -1.438 
 H                     0.656    -4.299    -0.327 
 H                     2.907    -3.879     0.615 
 H                     2.775    -1.581     2.66 
 H                     2.847    -3.338     3.016 
 H                     4.972    -2.595     3.078 
 H                    -1.068    -1.911     1.677 
 H                    -3.7      -3.064     0.597 
 H                    -3.086    -1.164     2.942 
 H                    -4.147    -4.057     3.1 
 H                    -2.074    -4.823     1.685 
 H                    -0.14     -5.22      3.226 
 H                     0.428    -4.675     1.615 
 H                     0.828    -2.645     2.497 
 H                    -5.355    -1.367     3.221 
 H                    -4.107    -0.758     0.428 
 H                    -0.349    -2.884    -2.777 
 H                    -3.87     -3.538     5.35 
 H                     2.848     0.137    -0.39 
 
 ITRead=  0  0  0  0  0  0  0  0  0  0  0  0  0  0  0  0  0  0  0  0
 ITRead=  0  0  0  0  0  0  0  0  0  0  0  0  0  0  0  0  0  0  0  0
 ITRead=  0  0  0  0  0
 MicOpt= -1 -1 -1 -1 -1 -1 -1 -1 -1 -1 -1 -1 -1 -1 -1 -1 -1 -1 -1 -1
 MicOpt= -1 -1 -1 -1 -1 -1 -1 -1 -1 -1 -1 -1 -1 -1 -1 -1 -1 -1 -1 -1
 MicOpt= -1 -1 -1 -1 -1
 NAtoms=     45 NQM=       45 NQMF=       0 NMMI=      0 NMMIF=      0
                NMic=       0 NMicF=      0.
                    Isotopes and Nuclear Properties:
 (Nuclear quadrupole moments (NQMom) in fm**2, nuclear magnetic moments (NMagM)
  in nuclear magnetons)

  Atom         1           2           3           4           5           6           7           8           9          10
 IAtWgt=          16          12          12          16          12          12          16          12          12          16
 AtmWgt=  15.9949146  12.0000000  12.0000000  15.9949146  12.0000000  12.0000000  15.9949146  12.0000000  12.0000000  15.9949146
 NucSpn=           0           0           0           0           0           0           0           0           0           0
 AtZEff=  -0.0000000  -0.0000000  -0.0000000  -0.0000000  -0.0000000  -0.0000000  -0.0000000  -0.0000000  -0.0000000  -0.0000000
 NQMom=    0.0000000   0.0000000   0.0000000   0.0000000   0.0000000   0.0000000   0.0000000   0.0000000   0.0000000   0.0000000
 NMagM=    0.0000000   0.0000000   0.0000000   0.0000000   0.0000000   0.0000000   0.0000000   0.0000000   0.0000000   0.0000000
 AtZNuc=   8.0000000   6.0000000   6.0000000   8.0000000   6.0000000   6.0000000   8.0000000   6.0000000   6.0000000   8.0000000

  Atom        11          12          13          14          15          16          17          18          19          20
 IAtWgt=          16          12          12          12          12          16          12          12          16          16
 AtmWgt=  15.9949146  12.0000000  12.0000000  12.0000000  12.0000000  15.9949146  12.0000000  12.0000000  15.9949146  15.9949146
 NucSpn=           0           0           0           0           0           0           0           0           0           0
 AtZEff=  -0.0000000  -0.0000000  -0.0000000  -0.0000000  -0.0000000  -0.0000000  -0.0000000  -0.0000000  -0.0000000  -0.0000000
 NQMom=    0.0000000   0.0000000   0.0000000   0.0000000   0.0000000   0.0000000   0.0000000   0.0000000   0.0000000   0.0000000
 NMagM=    0.0000000   0.0000000   0.0000000   0.0000000   0.0000000   0.0000000   0.0000000   0.0000000   0.0000000   0.0000000
 AtZNuc=   8.0000000   6.0000000   6.0000000   6.0000000   6.0000000   8.0000000   6.0000000   6.0000000   8.0000000   8.0000000

  Atom        21          22          23          24          25          26          27          28          29          30
 IAtWgt=          16          16          16           1           1           1           1           1           1           1
 AtmWgt=  15.9949146  15.9949146  15.9949146   1.0078250   1.0078250   1.0078250   1.0078250   1.0078250   1.0078250   1.0078250
 NucSpn=           0           0           0           1           1           1           1           1           1           1
 AtZEff=  -0.0000000  -0.0000000  -0.0000000  -0.0000000  -0.0000000  -0.0000000  -0.0000000  -0.0000000  -0.0000000  -0.0000000
 NQMom=    0.0000000   0.0000000   0.0000000   0.0000000   0.0000000   0.0000000   0.0000000   0.0000000   0.0000000   0.0000000
 NMagM=    0.0000000   0.0000000   0.0000000   2.7928460   2.7928460   2.7928460   2.7928460   2.7928460   2.7928460   2.7928460
 AtZNuc=   8.0000000   8.0000000   8.0000000   1.0000000   1.0000000   1.0000000   1.0000000   1.0000000   1.0000000   1.0000000

  Atom        31          32          33          34          35          36          37          38          39          40
 IAtWgt=           1           1           1           1           1           1           1           1           1           1
 AtmWgt=   1.0078250   1.0078250   1.0078250   1.0078250   1.0078250   1.0078250   1.0078250   1.0078250   1.0078250   1.0078250
 NucSpn=           1           1           1           1           1           1           1           1           1           1
 AtZEff=  -0.0000000  -0.0000000  -0.0000000  -0.0000000  -0.0000000  -0.0000000  -0.0000000  -0.0000000  -0.0000000  -0.0000000
 NQMom=    0.0000000   0.0000000   0.0000000   0.0000000   0.0000000   0.0000000   0.0000000   0.0000000   0.0000000   0.0000000
 NMagM=    2.7928460   2.7928460   2.7928460   2.7928460   2.7928460   2.7928460   2.7928460   2.7928460   2.7928460   2.7928460
 AtZNuc=   1.0000000   1.0000000   1.0000000   1.0000000   1.0000000   1.0000000   1.0000000   1.0000000   1.0000000   1.0000000

  Atom        41          42          43          44          45
 IAtWgt=           1           1           1           1           1
 AtmWgt=   1.0078250   1.0078250   1.0078250   1.0078250   1.0078250
 NucSpn=           1           1           1           1           1
 AtZEff=  -0.0000000  -0.0000000  -0.0000000  -0.0000000  -0.0000000
 NQMom=    0.0000000   0.0000000   0.0000000   0.0000000   0.0000000
 NMagM=    2.7928460   2.7928460   2.7928460   2.7928460   2.7928460
 AtZNuc=   1.0000000   1.0000000   1.0000000   1.0000000   1.0000000
 Leave Link  101 at Fri Jun 18 19:03:44 2021, MaxMem=  2147483648 cpu:               2.7 elap:               0.2
 (Enter /home/matma/Programs/gaussian/G16_x86_SSE4/tar/g16/l103.exe)

 GradGradGradGradGradGradGradGradGradGradGradGradGradGradGradGradGradGrad
 Berny optimization.
 Initialization pass.
                           ----------------------------
                           !    Initial Parameters    !
                           ! (Angstroms and Degrees)  !
 --------------------------                            --------------------------
 ! Name  Definition              Value          Derivative Info.                !
 --------------------------------------------------------------------------------
 ! R1    R(1,2)                  1.4481         estimate D2E/DX2                !
 ! R2    R(1,45)                 0.9564         estimate D2E/DX2                !
 ! R3    R(2,3)                  1.5429         estimate D2E/DX2                !
 ! R4    R(2,8)                  1.5457         estimate D2E/DX2                !
 ! R5    R(2,24)                 1.1041         estimate D2E/DX2                !
 ! R6    R(3,4)                  1.4371         estimate D2E/DX2                !
 ! R7    R(3,5)                  1.5486         estimate D2E/DX2                !
 ! R8    R(3,25)                 1.1092         estimate D2E/DX2                !
 ! R9    R(4,26)                 0.9996         estimate D2E/DX2                !
 ! R10   R(5,6)                  1.5782         estimate D2E/DX2                !
 ! R11   R(5,23)                 1.4342         estimate D2E/DX2                !
 ! R12   R(5,27)                 1.1036         estimate D2E/DX2                !
 ! R13   R(6,7)                  1.4399         estimate D2E/DX2                !
 ! R14   R(6,11)                 1.4355         estimate D2E/DX2                !
 ! R15   R(6,28)                 1.1128         estimate D2E/DX2                !
 ! R16   R(7,8)                  1.4458         estimate D2E/DX2                !
 ! R17   R(8,9)                  1.5405         estimate D2E/DX2                !
 ! R18   R(8,29)                 1.1076         estimate D2E/DX2                !
 ! R19   R(9,10)                 1.4358         estimate D2E/DX2                !
 ! R20   R(9,30)                 1.1075         estimate D2E/DX2                !
 ! R21   R(9,31)                 1.1055         estimate D2E/DX2                !
 ! R22   R(10,32)                0.9927         estimate D2E/DX2                !
 ! R23   R(11,12)                1.4489         estimate D2E/DX2                !
 ! R24   R(12,13)                1.5529         estimate D2E/DX2                !
 ! R25   R(12,17)                1.5669         estimate D2E/DX2                !
 ! R26   R(12,33)                1.1047         estimate D2E/DX2                !
 ! R27   R(13,14)                1.5483         estimate D2E/DX2                !
 ! R28   R(13,22)                1.4349         estimate D2E/DX2                !
 ! R29   R(13,34)                1.1097         estimate D2E/DX2                !
 ! R30   R(14,15)                1.5511         estimate D2E/DX2                !
 ! R31   R(14,21)                1.4304         estimate D2E/DX2                !
 ! R32   R(14,35)                1.1101         estimate D2E/DX2                !
 ! R33   R(15,16)                1.431          estimate D2E/DX2                !
 ! R34   R(15,20)                1.415          estimate D2E/DX2                !
 ! R35   R(15,36)                1.1142         estimate D2E/DX2                !
 ! R36   R(16,17)                1.432          estimate D2E/DX2                !
 ! R37   R(17,18)                1.5357         estimate D2E/DX2                !
 ! R38   R(17,37)                1.1065         estimate D2E/DX2                !
 ! R39   R(18,19)                1.4482         estimate D2E/DX2                !
 ! R40   R(18,38)                1.1008         estimate D2E/DX2                !
 ! R41   R(18,39)                1.1016         estimate D2E/DX2                !
 ! R42   R(19,40)                0.9965         estimate D2E/DX2                !
 ! R43   R(20,44)                0.9607         estimate D2E/DX2                !
 ! R44   R(21,41)                0.9985         estimate D2E/DX2                !
 ! R45   R(22,42)                0.9996         estimate D2E/DX2                !
 ! R46   R(23,43)                1.002          estimate D2E/DX2                !
 ! A1    A(2,1,45)             112.8361         estimate D2E/DX2                !
 ! A2    A(1,2,3)              110.6627         estimate D2E/DX2                !
 ! A3    A(1,2,8)              107.6724         estimate D2E/DX2                !
 ! A4    A(1,2,24)             110.2572         estimate D2E/DX2                !
 ! A5    A(3,2,8)              106.9256         estimate D2E/DX2                !
 ! A6    A(3,2,24)             110.7785         estimate D2E/DX2                !
 ! A7    A(8,2,24)             110.4466         estimate D2E/DX2                !
 ! A8    A(2,3,4)              109.5717         estimate D2E/DX2                !
 ! A9    A(2,3,5)              109.409          estimate D2E/DX2                !
 ! A10   A(2,3,25)             108.0975         estimate D2E/DX2                !
 ! A11   A(4,3,5)              110.7465         estimate D2E/DX2                !
 ! A12   A(4,3,25)             110.5178         estimate D2E/DX2                !
 ! A13   A(5,3,25)             108.4444         estimate D2E/DX2                !
 ! A14   A(3,4,26)             103.8375         estimate D2E/DX2                !
 ! A15   A(3,5,6)              112.8535         estimate D2E/DX2                !
 ! A16   A(3,5,23)             106.4555         estimate D2E/DX2                !
 ! A17   A(3,5,27)             106.6754         estimate D2E/DX2                !
 ! A18   A(6,5,23)             111.3341         estimate D2E/DX2                !
 ! A19   A(6,5,27)             108.7077         estimate D2E/DX2                !
 ! A20   A(23,5,27)            110.718          estimate D2E/DX2                !
 ! A21   A(5,6,7)              113.4865         estimate D2E/DX2                !
 ! A22   A(5,6,11)             112.7619         estimate D2E/DX2                !
 ! A23   A(5,6,28)             107.7284         estimate D2E/DX2                !
 ! A24   A(7,6,11)             110.0391         estimate D2E/DX2                !
 ! A25   A(7,6,28)             109.7659         estimate D2E/DX2                !
 ! A26   A(11,6,28)            102.4299         estimate D2E/DX2                !
 ! A27   A(6,7,8)              111.6849         estimate D2E/DX2                !
 ! A28   A(2,8,7)              110.2925         estimate D2E/DX2                !
 ! A29   A(2,8,9)              111.798          estimate D2E/DX2                !
 ! A30   A(2,8,29)             108.559          estimate D2E/DX2                !
 ! A31   A(7,8,9)              106.8587         estimate D2E/DX2                !
 ! A32   A(7,8,29)             110.1893         estimate D2E/DX2                !
 ! A33   A(9,8,29)             109.1326         estimate D2E/DX2                !
 ! A34   A(8,9,10)             106.5467         estimate D2E/DX2                !
 ! A35   A(8,9,30)             108.72           estimate D2E/DX2                !
 ! A36   A(8,9,31)             108.5624         estimate D2E/DX2                !
 ! A37   A(10,9,30)            111.8225         estimate D2E/DX2                !
 ! A38   A(10,9,31)            112.7346         estimate D2E/DX2                !
 ! A39   A(30,9,31)            108.3346         estimate D2E/DX2                !
 ! A40   A(9,10,32)            105.3555         estimate D2E/DX2                !
 ! A41   A(6,11,12)            125.9504         estimate D2E/DX2                !
 ! A42   A(11,12,13)           118.1824         estimate D2E/DX2                !
 ! A43   A(11,12,17)           106.678          estimate D2E/DX2                !
 ! A44   A(11,12,33)           108.3244         estimate D2E/DX2                !
 ! A45   A(13,12,17)           109.1288         estimate D2E/DX2                !
 ! A46   A(13,12,33)           106.4686         estimate D2E/DX2                !
 ! A47   A(17,12,33)           107.6597         estimate D2E/DX2                !
 ! A48   A(12,13,14)           109.0267         estimate D2E/DX2                !
 ! A49   A(12,13,22)           109.7022         estimate D2E/DX2                !
 ! A50   A(12,13,34)           109.2857         estimate D2E/DX2                !
 ! A51   A(14,13,22)           108.2494         estimate D2E/DX2                !
 ! A52   A(14,13,34)           108.8211         estimate D2E/DX2                !
 ! A53   A(22,13,34)           111.7081         estimate D2E/DX2                !
 ! A54   A(13,14,15)           111.631          estimate D2E/DX2                !
 ! A55   A(13,14,21)           106.1872         estimate D2E/DX2                !
 ! A56   A(13,14,35)           107.8816         estimate D2E/DX2                !
 ! A57   A(15,14,21)           112.5258         estimate D2E/DX2                !
 ! A58   A(15,14,35)           107.0747         estimate D2E/DX2                !
 ! A59   A(21,14,35)           111.5024         estimate D2E/DX2                !
 ! A60   A(14,15,16)           111.4201         estimate D2E/DX2                !
 ! A61   A(14,15,20)           107.2985         estimate D2E/DX2                !
 ! A62   A(14,15,36)           109.9393         estimate D2E/DX2                !
 ! A63   A(16,15,20)           104.6872         estimate D2E/DX2                !
 ! A64   A(16,15,36)           110.8046         estimate D2E/DX2                !
 ! A65   A(20,15,36)           112.561          estimate D2E/DX2                !
 ! A66   A(15,16,17)           114.6153         estimate D2E/DX2                !
 ! A67   A(12,17,16)           111.5036         estimate D2E/DX2                !
 ! A68   A(12,17,18)           112.7871         estimate D2E/DX2                !
 ! A69   A(12,17,37)           108.481          estimate D2E/DX2                !
 ! A70   A(16,17,18)           102.2382         estimate D2E/DX2                !
 ! A71   A(16,17,37)           112.2311         estimate D2E/DX2                !
 ! A72   A(18,17,37)           109.5523         estimate D2E/DX2                !
 ! A73   A(17,18,19)           109.2772         estimate D2E/DX2                !
 ! A74   A(17,18,38)           109.3948         estimate D2E/DX2                !
 ! A75   A(17,18,39)           110.3672         estimate D2E/DX2                !
 ! A76   A(19,18,38)           106.7312         estimate D2E/DX2                !
 ! A77   A(19,18,39)           111.9767         estimate D2E/DX2                !
 ! A78   A(38,18,39)           109.0022         estimate D2E/DX2                !
 ! A79   A(18,19,40)           106.0552         estimate D2E/DX2                !
 ! A80   A(15,20,44)           112.2922         estimate D2E/DX2                !
 ! A81   A(14,21,41)           105.1632         estimate D2E/DX2                !
 ! A82   A(13,22,42)           103.2529         estimate D2E/DX2                !
 ! A83   A(5,23,43)            104.9606         estimate D2E/DX2                !
 ! D1    D(45,1,2,3)           -68.3747         estimate D2E/DX2                !
 ! D2    D(45,1,2,8)           175.0926         estimate D2E/DX2                !
 ! D3    D(45,1,2,24)           54.5356         estimate D2E/DX2                !
 ! D4    D(1,2,3,4)             62.2109         estimate D2E/DX2                !
 ! D5    D(1,2,3,5)            -59.3814         estimate D2E/DX2                !
 ! D6    D(1,2,3,25)          -177.2891         estimate D2E/DX2                !
 ! D7    D(8,2,3,4)            179.2049         estimate D2E/DX2                !
 ! D8    D(8,2,3,5)             57.6126         estimate D2E/DX2                !
 ! D9    D(8,2,3,25)           -60.2951         estimate D2E/DX2                !
 ! D10   D(24,2,3,4)           -60.3961         estimate D2E/DX2                !
 ! D11   D(24,2,3,5)           178.0116         estimate D2E/DX2                !
 ! D12   D(24,2,3,25)           60.1039         estimate D2E/DX2                !
 ! D13   D(1,2,8,7)             51.9912         estimate D2E/DX2                !
 ! D14   D(1,2,8,9)            -66.7526         estimate D2E/DX2                !
 ! D15   D(1,2,8,29)           172.8077         estimate D2E/DX2                !
 ! D16   D(3,2,8,7)            -66.9601         estimate D2E/DX2                !
 ! D17   D(3,2,8,9)            174.2961         estimate D2E/DX2                !
 ! D18   D(3,2,8,29)            53.8563         estimate D2E/DX2                !
 ! D19   D(24,2,8,7)           172.4289         estimate D2E/DX2                !
 ! D20   D(24,2,8,9)            53.6851         estimate D2E/DX2                !
 ! D21   D(24,2,8,29)          -66.7546         estimate D2E/DX2                !
 ! D22   D(2,3,4,26)          -174.7028         estimate D2E/DX2                !
 ! D23   D(5,3,4,26)           -53.9181         estimate D2E/DX2                !
 ! D24   D(25,3,4,26)           66.2804         estimate D2E/DX2                !
 ! D25   D(2,3,5,6)            -47.8176         estimate D2E/DX2                !
 ! D26   D(2,3,5,23)          -170.2392         estimate D2E/DX2                !
 ! D27   D(2,3,5,27)            71.496          estimate D2E/DX2                !
 ! D28   D(4,3,5,6)           -168.6989         estimate D2E/DX2                !
 ! D29   D(4,3,5,23)            68.8796         estimate D2E/DX2                !
 ! D30   D(4,3,5,27)           -49.3852         estimate D2E/DX2                !
 ! D31   D(25,3,5,6)            69.8728         estimate D2E/DX2                !
 ! D32   D(25,3,5,23)          -52.5487         estimate D2E/DX2                !
 ! D33   D(25,3,5,27)         -170.8135         estimate D2E/DX2                !
 ! D34   D(3,5,6,7)             44.7001         estimate D2E/DX2                !
 ! D35   D(3,5,6,11)           170.6792         estimate D2E/DX2                !
 ! D36   D(3,5,6,28)           -77.037          estimate D2E/DX2                !
 ! D37   D(23,5,6,7)           164.3451         estimate D2E/DX2                !
 ! D38   D(23,5,6,11)          -69.6759         estimate D2E/DX2                !
 ! D39   D(23,5,6,28)           42.608          estimate D2E/DX2                !
 ! D40   D(27,5,6,7)           -73.4304         estimate D2E/DX2                !
 ! D41   D(27,5,6,11)           52.5486         estimate D2E/DX2                !
 ! D42   D(27,5,6,28)          164.8324         estimate D2E/DX2                !
 ! D43   D(3,5,23,43)         -158.8101         estimate D2E/DX2                !
 ! D44   D(6,5,23,43)           77.8149         estimate D2E/DX2                !
 ! D45   D(27,5,23,43)         -43.2405         estimate D2E/DX2                !
 ! D46   D(5,6,7,8)            -52.2288         estimate D2E/DX2                !
 ! D47   D(11,6,7,8)          -179.6399         estimate D2E/DX2                !
 ! D48   D(28,6,7,8)            68.3648         estimate D2E/DX2                !
 ! D49   D(5,6,11,12)         -130.5611         estimate D2E/DX2                !
 ! D50   D(7,6,11,12)           -2.7484         estimate D2E/DX2                !
 ! D51   D(28,6,11,12)         113.9314         estimate D2E/DX2                !
 ! D52   D(6,7,8,2)             64.4999         estimate D2E/DX2                !
 ! D53   D(6,7,8,9)           -173.7822         estimate D2E/DX2                !
 ! D54   D(6,7,8,29)           -55.3365         estimate D2E/DX2                !
 ! D55   D(2,8,9,10)           -54.6654         estimate D2E/DX2                !
 ! D56   D(2,8,9,30)            66.0072         estimate D2E/DX2                !
 ! D57   D(2,8,9,31)          -176.337          estimate D2E/DX2                !
 ! D58   D(7,8,9,10)          -175.4284         estimate D2E/DX2                !
 ! D59   D(7,8,9,30)           -54.7558         estimate D2E/DX2                !
 ! D60   D(7,8,9,31)            62.9            estimate D2E/DX2                !
 ! D61   D(29,8,9,10)           65.4389         estimate D2E/DX2                !
 ! D62   D(29,8,9,30)         -173.8885         estimate D2E/DX2                !
 ! D63   D(29,8,9,31)          -56.2327         estimate D2E/DX2                !
 ! D64   D(8,9,10,32)         -162.9848         estimate D2E/DX2                !
 ! D65   D(30,9,10,32)          78.3545         estimate D2E/DX2                !
 ! D66   D(31,9,10,32)         -44.0014         estimate D2E/DX2                !
 ! D67   D(6,11,12,13)         160.8349         estimate D2E/DX2                !
 ! D68   D(6,11,12,17)         -75.8932         estimate D2E/DX2                !
 ! D69   D(6,11,12,33)          39.7538         estimate D2E/DX2                !
 ! D70   D(11,12,13,14)        176.3262         estimate D2E/DX2                !
 ! D71   D(11,12,13,22)        -65.2924         estimate D2E/DX2                !
 ! D72   D(11,12,13,34)         57.496          estimate D2E/DX2                !
 ! D73   D(17,12,13,14)         54.2898         estimate D2E/DX2                !
 ! D74   D(17,12,13,22)        172.6712         estimate D2E/DX2                !
 ! D75   D(17,12,13,34)        -64.5404         estimate D2E/DX2                !
 ! D76   D(33,12,13,14)        -61.6459         estimate D2E/DX2                !
 ! D77   D(33,12,13,22)         56.7355         estimate D2E/DX2                !
 ! D78   D(33,12,13,34)        179.524          estimate D2E/DX2                !
 ! D79   D(11,12,17,16)        174.4842         estimate D2E/DX2                !
 ! D80   D(11,12,17,18)         60.1139         estimate D2E/DX2                !
 ! D81   D(11,12,17,37)        -61.4296         estimate D2E/DX2                !
 ! D82   D(13,12,17,16)        -56.7789         estimate D2E/DX2                !
 ! D83   D(13,12,17,18)       -171.1492         estimate D2E/DX2                !
 ! D84   D(13,12,17,37)         67.3073         estimate D2E/DX2                !
 ! D85   D(33,12,17,16)         58.3921         estimate D2E/DX2                !
 ! D86   D(33,12,17,18)        -55.9783         estimate D2E/DX2                !
 ! D87   D(33,12,17,37)       -177.5218         estimate D2E/DX2                !
 ! D88   D(12,13,14,15)        -53.4629         estimate D2E/DX2                !
 ! D89   D(12,13,14,21)       -176.4361         estimate D2E/DX2                !
 ! D90   D(12,13,14,35)         63.9138         estimate D2E/DX2                !
 ! D91   D(22,13,14,15)       -172.7516         estimate D2E/DX2                !
 ! D92   D(22,13,14,21)         64.2752         estimate D2E/DX2                !
 ! D93   D(22,13,14,35)        -55.3749         estimate D2E/DX2                !
 ! D94   D(34,13,14,15)         65.6571         estimate D2E/DX2                !
 ! D95   D(34,13,14,21)        -57.3162         estimate D2E/DX2                !
 ! D96   D(34,13,14,35)       -176.9662         estimate D2E/DX2                !
 ! D97   D(12,13,22,42)       -172.2098         estimate D2E/DX2                !
 ! D98   D(14,13,22,42)        -53.348          estimate D2E/DX2                !
 ! D99   D(34,13,22,42)         66.4474         estimate D2E/DX2                !
 ! D100  D(13,14,15,16)         53.3269         estimate D2E/DX2                !
 ! D101  D(13,14,15,20)        167.3706         estimate D2E/DX2                !
 ! D102  D(13,14,15,36)        -69.9153         estimate D2E/DX2                !
 ! D103  D(21,14,15,16)        172.6105         estimate D2E/DX2                !
 ! D104  D(21,14,15,20)        -73.3458         estimate D2E/DX2                !
 ! D105  D(21,14,15,36)         49.3682         estimate D2E/DX2                !
 ! D106  D(35,14,15,16)        -64.5354         estimate D2E/DX2                !
 ! D107  D(35,14,15,20)         49.5083         estimate D2E/DX2                !
 ! D108  D(35,14,15,36)        172.2224         estimate D2E/DX2                !
 ! D109  D(13,14,21,41)       -172.602          estimate D2E/DX2                !
 ! D110  D(15,14,21,41)         64.9903         estimate D2E/DX2                !
 ! D111  D(35,14,21,41)        -55.3436         estimate D2E/DX2                !
 ! D112  D(14,15,16,17)        -56.1681         estimate D2E/DX2                !
 ! D113  D(20,15,16,17)       -171.8278         estimate D2E/DX2                !
 ! D114  D(36,15,16,17)         66.5793         estimate D2E/DX2                !
 ! D115  D(14,15,20,44)        165.3141         estimate D2E/DX2                !
 ! D116  D(16,15,20,44)        -76.1927         estimate D2E/DX2                !
 ! D117  D(36,15,20,44)         44.2385         estimate D2E/DX2                !
 ! D118  D(15,16,17,12)         58.559          estimate D2E/DX2                !
 ! D119  D(15,16,17,18)        179.3175         estimate D2E/DX2                !
 ! D120  D(15,16,17,37)        -63.3854         estimate D2E/DX2                !
 ! D121  D(12,17,18,19)         61.6412         estimate D2E/DX2                !
 ! D122  D(12,17,18,38)        178.158          estimate D2E/DX2                !
 ! D123  D(12,17,18,39)        -61.914          estimate D2E/DX2                !
 ! D124  D(16,17,18,19)        -58.2238         estimate D2E/DX2                !
 ! D125  D(16,17,18,38)         58.293          estimate D2E/DX2                !
 ! D126  D(16,17,18,39)        178.221          estimate D2E/DX2                !
 ! D127  D(37,17,18,19)       -177.4241         estimate D2E/DX2                !
 ! D128  D(37,17,18,38)        -60.9072         estimate D2E/DX2                !
 ! D129  D(37,17,18,39)         59.0208         estimate D2E/DX2                !
 ! D130  D(17,18,19,40)        -81.0715         estimate D2E/DX2                !
 ! D131  D(38,18,19,40)        160.7325         estimate D2E/DX2                !
 ! D132  D(39,18,19,40)         41.5265         estimate D2E/DX2                !
 --------------------------------------------------------------------------------
 Trust Radius=3.00D-01 FncErr=1.00D-07 GrdErr=1.00D-07 EigMax=2.50D+02 EigMin=1.00D-04
 Number of steps in this run=    270 maximum allowed number of steps=    270.
 GradGradGradGradGradGradGradGradGradGradGradGradGradGradGradGradGradGrad

 Leave Link  103 at Fri Jun 18 19:03:44 2021, MaxMem=  2147483648 cpu:               0.1 elap:               0.0
 (Enter /home/matma/Programs/gaussian/G16_x86_SSE4/tar/g16/l202.exe)
                          Input orientation:                          
 ---------------------------------------------------------------------
 Center     Atomic      Atomic             Coordinates (Angstroms)
 Number     Number       Type             X           Y           Z
 ---------------------------------------------------------------------
      1          8           0        2.529000   -0.560000    0.182000
      2          6           0        3.089000   -1.855000   -0.144000
      3          6           0        2.561000   -2.349000   -1.507000
      4          8           0        2.973000   -1.440000   -2.541000
      5          6           0        1.017000   -2.455000   -1.453000
      6          6           0        0.499000   -3.209000   -0.167000
      7          8           0        1.157000   -2.795000    1.045000
      8          6           0        2.596000   -2.861000    0.921000
      9          6           0        3.179000   -2.552000    2.313000
     10          8           0        4.606000   -2.512000    2.159000
     11          8           0       -0.925000   -3.122000   -0.008000
     12          6           0       -1.624000   -2.739000    1.202000
     13          6           0       -3.098000   -2.266000    1.079000
     14          6           0       -3.663000   -2.001000    2.496000
     15          6           0       -3.476000   -3.229000    3.425000
     16          8           0       -2.112000   -3.661000    3.452000
     17          6           0       -1.559000   -3.971000    2.168000
     18          6           0       -0.120000   -4.374000    2.522000
     19          8           0        0.529000   -3.276000    3.208000
     20          8           0       -3.743000   -2.801000    4.747000
     21          8           0       -5.039000   -1.653000    2.318000
     22          8           0       -3.152000   -1.039000    0.337000
     23          8           0        0.614000   -3.131000   -2.652000
     24          1           0        4.192000   -1.805000   -0.146000
     25          1           0        2.976000   -3.361000   -1.691000
     26          1           0        2.517000   -1.787000   -3.360000
     27          1           0        0.629000   -1.422000   -1.438000
     28          1           0        0.656000   -4.299000   -0.327000
     29          1           0        2.907000   -3.879000    0.615000
     30          1           0        2.775000   -1.581000    2.660000
     31          1           0        2.847000   -3.338000    3.016000
     32          1           0        4.972000   -2.595000    3.078000
     33          1           0       -1.068000   -1.911000    1.677000
     34          1           0       -3.700000   -3.064000    0.597000
     35          1           0       -3.086000   -1.164000    2.942000
     36          1           0       -4.147000   -4.057000    3.100000
     37          1           0       -2.074000   -4.823000    1.685000
     38          1           0       -0.140000   -5.220000    3.226000
     39          1           0        0.428000   -4.675000    1.615000
     40          1           0        0.828000   -2.645000    2.497000
     41          1           0       -5.355000   -1.367000    3.221000
     42          1           0       -4.107000   -0.758000    0.428000
     43          1           0       -0.349000   -2.884000   -2.777000
     44          1           0       -3.870000   -3.538000    5.350000
     45          1           0        2.848000    0.137000   -0.390000
 ---------------------------------------------------------------------
                    Distance matrix (angstroms):
                    1          2          3          4          5
     1  O    0.000000
     2  C    1.448068   0.000000
     3  C    2.460542   1.542916   0.000000
     4  O    2.895905   2.435424   1.437074   0.000000
     5  C    2.924106   2.523225   1.548576   2.457622   0.000000
     6  C    3.355578   2.922661   2.605196   3.858227   1.578175
     7  O    2.760865   2.455595   2.946665   4.241848   2.524917
     8  C    2.417687   1.545739   2.481643   3.761225   2.879922
     9  C    2.988599   2.555535   3.874988   4.984004   4.343548
    10  O    3.468827   2.834916   4.200970   5.089781   5.092221
    11  O    4.304656   4.211411   3.872561   4.943644   2.510832
    12  C    4.799568   4.980516   5.000501   6.068761   3.755604
    13  C    5.947955   6.320096   6.222424   7.116440   4.835284
    14  C    6.765496   7.251236   7.408326   8.350005   6.140286
    15  C    7.328072   7.597688   7.845023   8.965672   6.676901
    16  O    6.469002   6.575960   6.939017   8.167381   5.941726
    17  C    5.682505   5.605953   5.754208   7.008542   4.695282
    18  C    5.199942   4.873459   5.246068   6.618835   4.558065
    19  O    4.531372   4.450702   5.217239   6.511147   4.757847
    20  O    8.074608   8.455355   8.891414  10.003595   7.824150
    21  O    7.939255   8.495095   8.536688   9.372694   7.179052
    22  O    5.703265   6.312472   6.144494   6.779330   4.752864
    23  O    4.278881   3.747515   2.390263   2.904597   1.434220
    24  H    2.103135   1.104135   2.192811   2.712049   3.494478
    25  H    3.399050   2.161947   1.109155   2.100655   2.171442
    26  H    3.748525   3.267180   1.936850   0.999553   2.516520
    27  H    2.641485   2.813099   2.143995   2.590612   1.103566
    28  H    4.212758   3.453421   2.970509   4.294667   2.190555
    29  H    3.368402   2.169281   2.638844   3.989162   3.142690
    30  H    2.691364   2.834799   4.242583   5.206677   4.557544
    31  H    3.981201   3.499065   4.638690   5.873545   4.909231
    32  H    4.300731   3.804546   5.186103   6.074799   6.015944
    33  H    4.122940   4.538703   4.847612   5.860294   3.800008
    34  H    6.726268   6.935509   6.643656   7.550718   5.179138
    35  H    6.285749   6.937687   7.286044   8.176243   6.149578
    36  H    8.081628   8.229948   8.314985   9.453252   7.068459
    37  H    6.451340   6.229834   6.147582   7.401079   5.000875
    38  H    6.172933   5.753831   6.159491   7.565544   5.556700
    39  H    4.837449   4.257629   4.439240   5.849324   3.832485
    40  H    3.549627   3.565263   4.372976   5.606647   3.959081
    41  H    8.487887   9.102884   9.272614  10.127268   7.976992
    42  H    6.643509   7.301576   7.123042   7.707560   5.716060
    43  H    4.737039   4.450997   3.219818   3.629947   1.950121
    44  H    8.747795   9.024644   9.475755  10.653456   8.446092
    45  H    0.956428   2.021549   2.740484   2.670085   3.346789
                    6          7          8          9         10
     6  C    0.000000
     7  O    1.439897   0.000000
     8  C    2.387940   1.445840   0.000000
     9  C    3.710047   2.399033   1.540466   0.000000
    10  O    4.771115   3.635476   2.386325   1.435843   0.000000
    11  O    1.435488   2.355942   3.650836   4.749185   5.971595
    12  C    2.569473   2.785991   4.231104   4.933366   6.307161
    13  C    3.921756   4.287892   5.727183   6.403537   7.783221
    14  C    5.086558   5.095904   6.511168   6.866590   8.291625
    15  C    5.357564   5.226609   6.578345   6.781143   8.211916
    16  O    4.485397   4.150899   5.404741   5.524661   6.937116
    17  C    3.204408   3.165559   4.477849   4.948053   6.335297
    18  C    2.995181   2.511075   3.497002   3.774489   5.092533
    19  O    3.375798   2.303110   3.110480   2.889239   4.278554
    20  O    6.504493   6.141241   7.404377   7.341692   8.745688
    21  O    6.266243   6.427683   7.855196   8.267028   9.684482
    22  O    4.276999   4.706621   6.058073   6.802596   8.104072
    23  O    2.488882   3.751740   4.094820   5.618335   6.282113
    24  H    3.950937   3.407317   2.191082   2.762401   2.446277
    25  H    2.912252   3.333889   2.686437   4.089952   4.266169
    26  H    4.036045   4.719077   4.414372   5.762499   5.945495
    27  H    2.196750   2.886036   3.391857   4.674334   5.472023
    28  H    1.112811   2.096521   2.718262   4.048103   4.997606
    29  H    2.618948   2.102964   1.107556   2.172123   2.671933
    30  H    3.977749   2.588425   2.166694   1.107459   2.114314
    31  H    3.957428   2.652506   2.163228   1.105545   2.123866
    32  H    5.560103   4.327507   3.220059   1.949852   0.992676
    33  H    2.746021   2.476188   3.859913   4.341933   5.726063
    34  H    4.270401   4.885030   6.307599   7.108266   8.469604
    35  H    5.167217   4.925629   6.264932   6.447667   7.848379
    36  H    5.742622   5.826499   7.186550   7.520284   8.937982
    37  H    3.557419   3.868041   5.122699   5.757242   7.084335
    38  H    3.995609   3.509928   4.285277   4.355176   5.567429
    39  H    2.308619   2.095410   2.910748   3.544338   4.736052
    40  H    2.742851   1.496344   2.378288   2.360022   3.795421
    41  H    7.010052   7.012867   8.410733   8.663593  10.082678
    42  H    5.251349   5.678006   7.042433   7.736760   9.054791
    43  H    2.763481   4.108971   4.727447   6.202025   7.003892
    44  H    7.045118   6.660015   7.866608   7.738473   9.114699
    45  H    4.094294   3.676320   3.281803   3.827073   4.074944
                   11         12         13         14         15
    11  O    0.000000
    12  C    1.448927   0.000000
    13  C    2.576089   1.552911   0.000000
    14  C    3.875990   2.525193   1.548334   0.000000
    15  C    4.278380   2.934575   2.563975   1.551127   0.000000
    16  O    3.697444   2.480066   2.923927   2.464779   1.431031
    17  C    2.420275   1.566909   2.541942   2.900914   2.409461
    18  C    2.935375   2.584113   3.923569   4.264347   3.659121
    19  O    3.532773   2.991290   4.325260   4.439080   4.011150
    20  O    5.536623   4.130500   3.762509   2.390272   1.414976
    21  O    4.949064   3.753276   2.382933   1.430442   2.480362
    22  O    3.068785   2.443974   1.434925   2.418232   3.799582
    23  O    3.059304   4.473882   5.333623   6.787601   7.325820
    24  H    5.285567   6.042790   7.406568   8.289729   8.577764
    25  H    4.255280   5.469583   6.765013   7.965983   8.235240
    26  H    4.986531   6.234263   7.173729   8.516509   9.166877
    27  H    2.711054   3.712155   4.575823   5.850885   6.615515
    28  H    1.996660   3.157506   4.494713   5.648353   5.682942
    29  H    3.955427   4.708941   6.235150   7.087309   7.004376
    30  H    4.814863   4.776812   6.120532   6.453769   6.509695
    31  H    4.839340   4.862020   6.343830   6.666188   6.337152
    32  H    6.676506   6.859105   8.320405   8.674952   8.478860
    33  H    2.079951   1.104692   2.145817   2.722662   3.254396
    34  H    2.840777   2.186647   1.109744   2.176589   2.841652
    35  H    4.148034   2.765080   2.164559   1.110141   2.156296
    36  H    4.573311   3.421265   2.896985   2.196863   1.114204
    37  H    2.660799   2.186057   2.820294   3.338611   2.744821
    38  H    3.934029   3.529050   4.699520   4.827669   3.890061
    39  H    2.622317   2.851205   4.303865   4.966157   4.539629
    40  H    3.094441   2.774557   4.191401   4.536939   4.441470
    41  H    5.755985   4.458599   3.238891   1.946907   2.653168
    42  H    3.987946   3.269362   1.927679   2.453326   3.935227
    43  H    2.838271   4.180800   4.775737   6.290216   6.954276
    44  H    6.128152   4.784226   4.522766   3.248159   1.989056
    45  H    5.000253   5.550191   6.579307   7.435937   8.116474
                   16         17         18         19         20
    16  O    0.000000
    17  C    1.431979   0.000000
    18  C    2.311132   1.535723   0.000000
    19  O    2.680045   2.434003   1.448241   0.000000
    20  O    2.253172   3.576311   4.533330   4.565537   0.000000
    21  O    3.726305   4.184020   5.625124   5.867611   2.982878
    22  O    4.202346   3.806157   5.008939   5.176540   4.785606
    23  O    6.706027   5.353497   5.371599   5.862410   8.592878
    24  H    7.492046   6.566594   5.684305   5.179838   9.375377
    25  H    7.240732   5.985834   5.325482   5.476791   9.322360
    26  H    8.446470   7.207109   6.945809   7.021958  10.292679
    27  H    6.036415   4.928284   4.995689   5.003262   7.698717
    28  H    4.727548   3.352437   2.953744   3.682239   6.880456
    29  H    5.769441   4.729210   3.611704   3.569614   7.903038
    30  H    5.369957   4.973703   4.025036   2.866678   6.951855
    31  H    4.988598   4.531294   3.181261   2.326764   6.834678
    32  H    7.173513   6.736129   5.422402   4.496767   8.875766
    33  H    2.702418   2.173882   2.771119   2.599537   4.168048
    34  H    3.321021   2.806167   4.270612   4.974606   4.158548
    35  H    2.728330   3.287865   4.390633   4.195179   2.523776
    36  H    2.102842   2.752047   4.080601   4.742004   2.110299
    37  H    2.115178   1.106534   2.172622   3.389446   4.031115
    38  H    2.523953   2.166316   1.100787   2.055972   4.598544
    39  H    3.294596   2.179356   1.101614   2.122511   5.542431
    40  H    3.253902   2.750325   1.971996   0.996535   5.097144
    41  H    3.979051   4.722207   6.077489   6.185944   2.642646
    42  H    4.642414   4.454579   5.775505   5.963323   4.791670
    43  H    6.520149   5.205641   5.509260   6.061747   8.254496
    44  H    2.589999   3.956429   4.770637   4.899797   0.960680
    45  H    7.333987   6.545279   6.134973   5.474663   8.857872
                   21         22         23         24         25
    21  O    0.000000
    22  O    2.803948   0.000000
    23  O    7.670840   5.243409   0.000000
    24  H    9.555405   7.399620   4.565128   0.000000
    25  H    9.123024   6.859800   2.560364   2.507353   0.000000
    26  H    9.452554   6.809176   2.434956   3.624327   2.339598
    27  H    6.803464   4.194434   2.096354   3.809320   3.054855
    28  H    6.813983   5.056615   2.602232   4.330831   2.850042
    29  H    8.425806   6.697340   4.060867   2.555743   2.364471
    30  H    7.821812   6.389008   5.940519   3.151460   4.705316
    31  H    8.094160   6.960635   6.095520   3.762626   4.708824
    32  H   10.083902   8.713988   7.218889   3.409791   5.226292
    33  H    4.030668   2.626602   4.801850   5.567959   5.458925
    34  H    2.597245   2.113890   5.401026   8.026257   7.063436
    35  H    2.107773   2.608832   6.989415   7.931955   7.939732
    36  H    2.680747   4.211000   7.523968   9.227510   8.612504
    37  H    4.386435   4.159068   5.375665   7.191915   6.247985
    38  H    6.127655   5.907557   6.283575   6.465202   6.110829
    39  H    6.286078   5.260245   4.541566   5.050319   4.375904
    40  H    5.952965   4.804710   5.176311   4.359764   4.760872
    41  H    0.998529   3.643933   8.557616  10.132805   9.874682
    42  H    2.289487   0.999633   6.115993   8.384455   7.838026
    43  H    7.033526   4.577972   1.002000   5.357899   3.530234
    44  H    3.756702   5.647185   9.181716   9.909851   9.822155
    45  H    8.528900   6.157232   4.559301   2.374286   3.734299
                   26         27         28         29         30
    26  H    0.000000
    27  H    2.718796   0.000000
    28  H    4.355750   3.084182   0.000000
    29  H    4.508790   3.929496   2.476038   0.000000
    30  H    6.029046   4.628628   4.560686   3.079002   0.000000
    31  H    6.570227   5.331857   4.110919   2.461926   1.794149
    32  H    6.937415   6.374310   5.755475   3.461105   2.455551
    33  H    6.183767   3.580804   3.562406   4.560865   3.980432
    34  H    7.479283   5.057433   4.621010   6.657101   6.955637
    35  H    8.455586   5.749103   5.875130   6.978696   5.882579
    36  H    9.554758   7.095551   5.905227   7.481031   7.364663
    37  H    7.466365   5.350340   3.431562   5.181351   5.913881
    38  H    7.887999   6.063750   3.755751   4.230817   4.696797
    39  H    6.120056   4.465783   1.991161   2.789096   4.021600
    40  H    6.155756   4.125476   3.277236   3.063808   2.224741
    41  H   10.269097   7.584033   7.570802   9.020090   8.152142
    42  H    7.699686   5.133473   5.982882   7.679310   7.281557
    43  H    3.123660   2.210622   3.002457   4.805957   6.404542
    44  H   10.941840   8.414000   7.300146   8.274312   7.431149
    45  H    3.554186   2.907361   4.948427   4.140261   3.501336
                   31         32         33         34         35
    31  H    0.000000
    32  H    2.252003   0.000000
    33  H    4.376811   6.237969   0.000000
    34  H    6.984973   9.032104   3.069728   0.000000
    35  H    6.319196   8.185207   2.496109   3.079938   0.000000
    36  H    7.031362   9.235480   4.013787   2.729628   3.085471
    37  H    5.309711   7.520010   3.080884   2.630913   3.999059
    38  H    3.536692   5.748484   3.769624   4.922761   5.021027
    39  H    3.098698   5.207178   3.143494   4.546650   5.141619
    40  H    2.196809   4.184829   2.192253   4.928321   4.208418
    41  H    8.437990  10.400739   4.588926   3.536129   2.295084
    42  H    7.855715   9.634589   3.482087   2.347732   2.743624
    43  H    6.631695   7.916918   4.615388   4.758726   6.569363
    44  H    7.113764   9.177810   4.897883   4.779601   3.471166
    45  H    4.865846   4.899206   4.878714   7.355058   6.928721
                   36         37         38         39         40
    36  H    0.000000
    37  H    2.624178   0.000000
    38  H    4.174266   2.504525   0.000000
    39  H    4.849513   2.507351   1.793034   0.000000
    40  H    5.206532   3.718149   2.845890   2.249183   0.000000
    41  H    2.951272   5.006815   6.483969   6.853115   6.355073
    42  H    4.245537   4.715651   6.593583   6.108853   5.674130
    43  H    7.095059   5.161859   6.444888   4.806358   5.409023
    44  H    2.325638   4.278909   4.610141   5.806531   5.568506
    45  H    8.871289   7.289260   7.120467   5.747327   4.489398
                   41         42         43         44         45
    41  H    0.000000
    42  H    3.119172   0.000000
    43  H    7.958475   5.377217   0.000000
    44  H    3.383948   5.657796   8.881063   0.000000
    45  H    9.087934   7.059899   5.004500   9.569992   0.000000
 Stoichiometry    C12H22O11
 Framework group  C1[X(C12H22O11)]
 Deg. of freedom   129
 Full point group                 C1      NOp   1
 Largest Abelian subgroup         C1      NOp   1
 Largest concise Abelian subgroup C1      NOp   1
                         Standard orientation:                         
 ---------------------------------------------------------------------
 Center     Atomic      Atomic             Coordinates (Angstroms)
 Number     Number       Type             X           Y           Z
 ---------------------------------------------------------------------
      1          8           0       -2.905894   -0.056905    1.891704
      2          6           0       -3.471605    0.219718    0.587728
      3          6           0       -3.589584   -1.076585   -0.240687
      4          8           0       -4.480909   -1.990324    0.419466
      5          6           0       -2.185684   -1.707240   -0.412224
      6          6           0       -1.095429   -0.661249   -0.868167
      7          8           0       -1.156561    0.583021   -0.146115
      8          6           0       -2.488208    1.145929   -0.163519
      9          6           0       -2.394551    2.535346    0.495104
     10          8           0       -3.735681    3.042268    0.572862
     11          8           0        0.237452   -1.192157   -0.821346
     12          6           0        1.383922   -0.559187   -0.201390
     13          6           0        2.609548   -1.445333    0.150917
     14          6           0        3.738017   -0.545974    0.712210
     15          6           0        4.068840    0.624248   -0.250666
     16          8           0        2.894962    1.368302   -0.591608
     17          6           0        1.840247    0.588319   -1.165860
     18          6           0        0.746151    1.640780   -1.397647
     19          8           0        0.412263    2.269143   -0.136267
     20          8           0        4.879192    1.539350    0.462128
     21          8           0        4.859292   -1.405672    0.935422
     22          8           0        2.245313   -2.394124    1.163902
     23          8           0       -2.329203   -2.763266   -1.372015
     24          1           0       -4.456347    0.707690    0.693927
     25          1           0       -3.979472   -0.809873   -1.244219
     26          1           0       -4.425343   -2.820597   -0.134307
     27          1           0       -1.897725   -2.111853    0.573284
     28          1           0       -1.240212   -0.472972   -1.955337
     29          1           0       -2.840567    1.261899   -1.207106
     30          1           0       -1.938006    2.423318    1.497842
     31          1           0       -1.732036    3.172211   -0.119472
     32          1           0       -3.639310    4.017970    0.728181
     33          1           0        1.053744   -0.091442    0.743355
     34          1           0        2.975599   -1.947008   -0.768791
     35          1           0        3.375462   -0.095713    1.659962
     36          1           0        4.569282    0.233169   -1.166125
     37          1           0        2.131824    0.137936   -2.133618
     38          1           0        1.135409    2.434330   -2.053764
     39          1           0       -0.133743    1.180488   -1.874588
     40          1           0       -0.214958    1.646584    0.324272
     41          1           0        5.532014   -0.839863    1.409095
     42          1           0        3.118357   -2.815589    1.407682
     43          1           0       -1.544879   -3.366101   -1.212552
     44          1           0        5.311062    2.172000   -0.117657
     45          1           0       -3.491955   -0.566297    2.450099
 ---------------------------------------------------------------------
 Rotational constants (GHZ):           0.4207052           0.1542590           0.1275673
 Leave Link  202 at Fri Jun 18 19:03:44 2021, MaxMem=  2147483648 cpu:               0.0 elap:               0.0
 (Enter /home/matma/Programs/gaussian/G16_x86_SSE4/tar/g16/l301.exe)
 Standard basis: STO-3G (5D, 7F)
 Ernie: Thresh=  0.10000D-02 Tol=  0.10000D-05 Strict=F.
 There are   137 symmetry adapted cartesian basis functions of A   symmetry.
 There are   137 symmetry adapted basis functions of A   symmetry.
   137 basis functions,   411 primitive gaussians,   137 cartesian basis functions
    91 alpha electrons       91 beta electrons
       nuclear repulsion energy      2330.6480906524 Hartrees.
 IExCor= 1009 DFT=T Ex+Corr=PBE1PBE ExCW=0 ScaHFX=  0.250000
 ScaDFX=  0.750000  0.750000  1.000000  1.000000 ScalE2=  1.000000  1.000000
 IRadAn=  99590 IRanWt=     -1 IRanGd=            0 ICorTp=0 IEmpDi=131
 NAtoms=   45 NActive=   45 NUniq=   45 SFac= 1.00D+00 NAtFMM=   60 NAOKFM=F Big=F
 Integral buffers will be    131072 words long.
 Raffenetti 2 integral format.
 Two-electron integral symmetry is turned on.
 R6Disp:  Grimme-D3 Dispersion energy=       -0.0372670795 Hartrees.
 Nuclear repulsion after empirical dispersion term =     2330.6108235729 Hartrees.
 Leave Link  301 at Fri Jun 18 19:03:44 2021, MaxMem=  2147483648 cpu:               0.2 elap:               0.0
 (Enter /home/matma/Programs/gaussian/G16_x86_SSE4/tar/g16/l302.exe)
 NPDir=0 NMtPBC=     1 NCelOv=     1 NCel=       1 NClECP=     1 NCelD=      1
         NCelK=      1 NCelE2=     1 NClLst=     1 CellRange=     0.0.
 One-electron integrals computed using PRISM.
 One-electron integral symmetry used in STVInt
 NBasis=   137 RedAO= T EigKep=  2.15D-01  NBF=   137
 NBsUse=   137 1.00D-06 EigRej= -1.00D+00 NBFU=   137
 Precomputing XC quadrature grid using
 IXCGrd= 4 IRadAn=       99590 IRanWt=          -1 IRanGd=           0 AccXCQ= 0.00D+00.
 Generated NRdTot=       0 NPtTot=           0 NUsed=           0 NTot=          32
 NSgBfM=   133   133   133   133   133 MxSgAt=    45 MxSgA2=    45.
 Leave Link  302 at Fri Jun 18 19:03:44 2021, MaxMem=  2147483648 cpu:               3.7 elap:               0.3
 (Enter /home/matma/Programs/gaussian/G16_x86_SSE4/tar/g16/l303.exe)
 DipDrv:  MaxL=1.
 Leave Link  303 at Fri Jun 18 19:03:44 2021, MaxMem=  2147483648 cpu:               0.2 elap:               0.0
 (Enter /home/matma/Programs/gaussian/G16_x86_SSE4/tar/g16/l401.exe)
 ExpMin= 1.69D-01 ExpMax= 1.31D+02 ExpMxC= 1.31D+02 IAcc=4 IRadAn=    199590 AccDes= 0.00D+00
 Harris functional with IExCor= 1009 and IRadAn=  199590 diagonalized for initial guess.
 HarFok:  IExCor= 1009 AccDes= 0.00D+00 IRadAn=    199590 IDoV= 1 UseB2=F ITyADJ=14
 ICtDFT=  3500011 ScaDFX=  1.000000  1.000000  1.000000  1.000000
 FoFCou: FMM=F IPFlag=           0 FMFlag=      100000 FMFlg1=           0
         NFxFlg=           0 DoJE=T BraDBF=F KetDBF=T FulRan=T
         wScrn=  0.000000 ICntrl=       500 IOpCl=  0 I1Cent=   200000004 NGrid=           0
         NMat0=    1 NMatS0=      1 NMatT0=    0 NMatD0=    1 NMtDS0=    0 NMtDT0=    0
 Petite list used in FoFCou.
 Harris En= -1279.59448743758    
 JPrj=0 DoOrth=F DoCkMO=F.
 Leave Link  401 at Fri Jun 18 19:03:47 2021, MaxMem=  2147483648 cpu:              33.3 elap:               2.8
 (Enter /home/matma/Programs/gaussian/G16_x86_SSE4/tar/g16/l502.exe)
 Integral symmetry usage will be decided dynamically.
 Closed shell SCF:
 Using DIIS extrapolation, IDIIS=  1040.
 NGot=  2147483648 LenX=  2147441878 LenY=  2147422668
 Requested convergence on RMS density matrix=1.00D-08 within 128 cycles.
 Requested convergence on MAX density matrix=1.00D-06.
 Requested convergence on             energy=1.00D-06.
 No special actions if energy rises.
 Fock matrices will be formed incrementally for  20 cycles.
 Integral accuracy reduced to 1.0D-05 until final iterations.

 Cycle   1  Pass 0  IDiag  1:
 FoFJK:  IHMeth= 1 ICntrl=       0 DoSepK=F KAlg= 0 I1Cent=           0 FoldK=F
 IRaf= 820000000 NMat=       1 IRICut=       1 DoRegI=T DoRafI=F ISym2E= 0 IDoP0=0 IntGTp=1.
 FoFCou: FMM=F IPFlag=           0 FMFlag=      100000 FMFlg1=           0
         NFxFlg=           0 DoJE=F BraDBF=F KetDBF=F FulRan=T
         wScrn=  0.000000 ICntrl=         0 IOpCl=  0 I1Cent=           0 NGrid=           0
         NMat0=    1 NMatS0=      1 NMatT0=    0 NMatD0=    1 NMtDS0=    0 NMtDT0=    0
 Symmetry not used in FoFCou.
 E= -1279.25963543633    
 DIIS: error= 2.16D-02 at cycle   1 NSaved=   1.
 NSaved= 1 IEnMin= 1 EnMin= -1279.25963543633     IErMin= 1 ErrMin= 2.16D-02
 ErrMax= 2.16D-02  0.00D+00 EMaxC= 1.00D-01 BMatC= 1.52D-01 BMatP= 1.52D-01
 IDIUse=3 WtCom= 7.84D-01 WtEn= 2.16D-01
 Coeff-Com:  0.100D+01
 Coeff-En:   0.100D+01
 Coeff:      0.100D+01
 Gap=     0.318 Goal=   None    Shift=    0.000
 GapD=    0.318 DampG=1.000 DampE=0.500 DampFc=0.5000 IDamp=-1.
 Damping current iteration by 5.00D-01
 RMSDP=7.44D-03 MaxDP=1.54D-01              OVMax= 0.00D+00

 Cycle   2  Pass 0  IDiag  1:
 RMSU=  3.72D-03    CP:  1.00D+00
 E= -1279.37030379371     Delta-E=       -0.110668357378 Rises=F Damp=T
 DIIS: error= 4.38D-03 at cycle   2 NSaved=   2.
 NSaved= 2 IEnMin= 2 EnMin= -1279.37030379371     IErMin= 2 ErrMin= 4.38D-03
 ErrMax= 4.38D-03  0.00D+00 EMaxC= 1.00D-01 BMatC= 8.64D-03 BMatP= 1.52D-01
 IDIUse=3 WtCom= 9.56D-01 WtEn= 4.38D-02
 Coeff-Com: -0.121D+00 0.112D+01
 Coeff-En:   0.000D+00 0.100D+01
 Coeff:     -0.116D+00 0.112D+01
 Gap=     0.326 Goal=   None    Shift=    0.000
 RMSDP=1.40D-03 MaxDP=2.41D-02 DE=-1.11D-01 OVMax= 0.00D+00

 Cycle   3  Pass 0  IDiag  1:
 RMSU=  1.32D-03    CP:  1.00D+00  1.12D+00
 E= -1279.46898730043     Delta-E=       -0.098683506722 Rises=F Damp=F
 DIIS: error= 2.62D-03 at cycle   3 NSaved=   3.
 NSaved= 3 IEnMin= 3 EnMin= -1279.46898730043     IErMin= 3 ErrMin= 2.62D-03
 ErrMax= 2.62D-03  0.00D+00 EMaxC= 1.00D-01 BMatC= 2.87D-03 BMatP= 8.64D-03
 IDIUse=3 WtCom= 9.74D-01 WtEn= 2.62D-02
 Coeff-Com: -0.880D-01 0.431D+00 0.657D+00
 Coeff-En:   0.000D+00 0.000D+00 0.100D+01
 Coeff:     -0.857D-01 0.419D+00 0.666D+00
 Gap=     0.309 Goal=   None    Shift=    0.000
 RMSDP=6.23D-04 MaxDP=1.11D-02 DE=-9.87D-02 OVMax= 0.00D+00

 Cycle   4  Pass 0  IDiag  1:
 RMSU=  3.42D-04    CP:  1.00D+00  1.16D+00  6.18D-01
 E= -1279.47237128120     Delta-E=       -0.003383980769 Rises=F Damp=F
 DIIS: error= 4.83D-04 at cycle   4 NSaved=   4.
 NSaved= 4 IEnMin= 4 EnMin= -1279.47237128120     IErMin= 4 ErrMin= 4.83D-04
 ErrMax= 4.83D-04  0.00D+00 EMaxC= 1.00D-01 BMatC= 1.31D-04 BMatP= 2.87D-03
 IDIUse=3 WtCom= 9.95D-01 WtEn= 4.83D-03
 Coeff-Com: -0.170D-01 0.431D-01 0.204D+00 0.770D+00
 Coeff-En:   0.000D+00 0.000D+00 0.000D+00 0.100D+01
 Coeff:     -0.169D-01 0.429D-01 0.203D+00 0.771D+00
 Gap=     0.309 Goal=   None    Shift=    0.000
 RMSDP=1.32D-04 MaxDP=2.54D-03 DE=-3.38D-03 OVMax= 0.00D+00

 Cycle   5  Pass 0  IDiag  1:
 RMSU=  7.31D-05    CP:  1.00D+00  1.16D+00  6.75D-01  7.71D-01
 E= -1279.47253122891     Delta-E=       -0.000159947708 Rises=F Damp=F
 DIIS: error= 1.20D-04 at cycle   5 NSaved=   5.
 NSaved= 5 IEnMin= 5 EnMin= -1279.47253122891     IErMin= 5 ErrMin= 1.20D-04
 ErrMax= 1.20D-04  0.00D+00 EMaxC= 1.00D-01 BMatC= 6.67D-06 BMatP= 1.31D-04
 IDIUse=3 WtCom= 9.99D-01 WtEn= 1.20D-03
 Coeff-Com: -0.506D-02 0.848D-02 0.682D-01 0.319D+00 0.609D+00
 Coeff-En:   0.000D+00 0.000D+00 0.000D+00 0.000D+00 0.100D+01
 Coeff:     -0.505D-02 0.847D-02 0.681D-01 0.319D+00 0.610D+00
 Gap=     0.310 Goal=   None    Shift=    0.000
 RMSDP=2.97D-05 MaxDP=6.18D-04 DE=-1.60D-04 OVMax= 0.00D+00

 Cycle   6  Pass 0  IDiag  1:
 RMSU=  1.38D-05    CP:  1.00D+00  1.16D+00  6.78D-01  7.96D-01  6.65D-01
 E= -1279.47254004267     Delta-E=       -0.000008813764 Rises=F Damp=F
 DIIS: error= 2.02D-05 at cycle   6 NSaved=   6.
 NSaved= 6 IEnMin= 6 EnMin= -1279.47254004267     IErMin= 6 ErrMin= 2.02D-05
 ErrMax= 2.02D-05  0.00D+00 EMaxC= 1.00D-01 BMatC= 1.22D-07 BMatP= 6.67D-06
 IDIUse=1 WtCom= 1.00D+00 WtEn= 0.00D+00
 Coeff-Com: -0.711D-03 0.678D-03 0.948D-02 0.524D-01 0.160D+00 0.778D+00
 Coeff:     -0.711D-03 0.678D-03 0.948D-02 0.524D-01 0.160D+00 0.778D+00
 Gap=     0.310 Goal=   None    Shift=    0.000
 RMSDP=4.65D-06 MaxDP=8.82D-05 DE=-8.81D-06 OVMax= 0.00D+00

 Initial convergence to 1.0D-05 achieved.  Increase integral accuracy.
 Cycle   7  Pass 1  IDiag  1:
 E= -1279.47255173018     Delta-E=       -0.000011687510 Rises=F Damp=F
 DIIS: error= 6.00D-06 at cycle   1 NSaved=   1.
 NSaved= 1 IEnMin= 1 EnMin= -1279.47255173018     IErMin= 1 ErrMin= 6.00D-06
 ErrMax= 6.00D-06  0.00D+00 EMaxC= 1.00D-01 BMatC= 1.67D-08 BMatP= 1.67D-08
 IDIUse=1 WtCom= 1.00D+00 WtEn= 0.00D+00
 Coeff-Com:  0.100D+01
 Coeff:      0.100D+01
 Gap=     0.310 Goal=   None    Shift=    0.000
 RMSDP=4.65D-06 MaxDP=8.82D-05 DE=-1.17D-05 OVMax= 0.00D+00

 Cycle   8  Pass 1  IDiag  1:
 RMSU=  2.54D-06    CP:  1.00D+00
 E= -1279.47255174419     Delta-E=       -0.000000014010 Rises=F Damp=F
 DIIS: error= 6.09D-06 at cycle   2 NSaved=   2.
 NSaved= 2 IEnMin= 2 EnMin= -1279.47255174419     IErMin= 1 ErrMin= 6.00D-06
 ErrMax= 6.09D-06  0.00D+00 EMaxC= 1.00D-01 BMatC= 9.82D-09 BMatP= 1.67D-08
 IDIUse=1 WtCom= 1.00D+00 WtEn= 0.00D+00
 Coeff-Com:  0.427D+00 0.573D+00
 Coeff:      0.427D+00 0.573D+00
 Gap=     0.310 Goal=   None    Shift=    0.000
 RMSDP=1.14D-06 MaxDP=2.49D-05 DE=-1.40D-08 OVMax= 0.00D+00

 Cycle   9  Pass 1  IDiag  1:
 RMSU=  6.55D-07    CP:  1.00D+00  6.33D-01
 E= -1279.47255175641     Delta-E=       -0.000000012221 Rises=F Damp=F
 DIIS: error= 9.61D-07 at cycle   3 NSaved=   3.
 NSaved= 3 IEnMin= 3 EnMin= -1279.47255175641     IErMin= 3 ErrMin= 9.61D-07
 ErrMax= 9.61D-07  0.00D+00 EMaxC= 1.00D-01 BMatC= 2.31D-10 BMatP= 9.82D-09
 IDIUse=1 WtCom= 1.00D+00 WtEn= 0.00D+00
 Coeff-Com:  0.416D-01 0.146D+00 0.812D+00
 Coeff:      0.416D-01 0.146D+00 0.812D+00
 Gap=     0.310 Goal=   None    Shift=    0.000
 RMSDP=1.98D-07 MaxDP=6.98D-06 DE=-1.22D-08 OVMax= 0.00D+00

 Cycle  10  Pass 1  IDiag  1:
 RMSU=  1.57D-07    CP:  1.00D+00  6.68D-01  8.77D-01
 E= -1279.47255175663     Delta-E=       -0.000000000219 Rises=F Damp=F
 DIIS: error= 2.54D-07 at cycle   4 NSaved=   4.
 NSaved= 4 IEnMin= 4 EnMin= -1279.47255175663     IErMin= 4 ErrMin= 2.54D-07
 ErrMax= 2.54D-07  0.00D+00 EMaxC= 1.00D-01 BMatC= 3.60D-11 BMatP= 2.31D-10
 IDIUse=1 WtCom= 1.00D+00 WtEn= 0.00D+00
 Coeff-Com: -0.776D-02 0.300D-01 0.359D+00 0.619D+00
 Coeff:     -0.776D-02 0.300D-01 0.359D+00 0.619D+00
 Gap=     0.310 Goal=   None    Shift=    0.000
 RMSDP=6.29D-08 MaxDP=1.99D-06 DE=-2.19D-10 OVMax= 0.00D+00

 Cycle  11  Pass 1  IDiag  1:
 RMSU=  2.16D-08    CP:  1.00D+00  6.71D-01  9.11D-01  6.54D-01
 E= -1279.47255175669     Delta-E=       -0.000000000056 Rises=F Damp=F
 DIIS: error= 4.52D-08 at cycle   5 NSaved=   5.
 NSaved= 5 IEnMin= 5 EnMin= -1279.47255175669     IErMin= 5 ErrMin= 4.52D-08
 ErrMax= 4.52D-08  0.00D+00 EMaxC= 1.00D-01 BMatC= 4.99D-13 BMatP= 3.60D-11
 IDIUse=1 WtCom= 1.00D+00 WtEn= 0.00D+00
 Coeff-Com: -0.362D-02 0.894D-02 0.122D+00 0.235D+00 0.637D+00
 Coeff:     -0.362D-02 0.894D-02 0.122D+00 0.235D+00 0.637D+00
 Gap=     0.310 Goal=   None    Shift=    0.000
 RMSDP=8.25D-09 MaxDP=2.11D-07 DE=-5.64D-11 OVMax= 0.00D+00

 SCF Done:  E(RPBE1PBE) =  -1279.47255176     A.U. after   11 cycles
            NFock= 11  Conv=0.82D-08     -V/T= 2.0141
 KE= 1.261636533110D+03 PE=-7.667467918912D+03 EE= 2.795748010472D+03
 Leave Link  502 at Fri Jun 18 19:03:58 2021, MaxMem=  2147483648 cpu:             124.0 elap:              10.3
 (Enter /home/matma/Programs/gaussian/G16_x86_SSE4/tar/g16/l601.exe)
 Copying SCF densities to generalized density rwf, IOpCl= 0 IROHF=0.

 **********************************************************************

            Population analysis using the SCF Density.

 **********************************************************************

 Orbital symmetries:
       Occupied  (A) (A) (A) (A) (A) (A) (A) (A) (A) (A) (A) (A)
                 (A) (A) (A) (A) (A) (A) (A) (A) (A) (A) (A) (A)
                 (A) (A) (A) (A) (A) (A) (A) (A) (A) (A) (A) (A)
                 (A) (A) (A) (A) (A) (A) (A) (A) (A) (A) (A) (A)
                 (A) (A) (A) (A) (A) (A) (A) (A) (A) (A) (A) (A)
                 (A) (A) (A) (A) (A) (A) (A) (A) (A) (A) (A) (A)
                 (A) (A) (A) (A) (A) (A) (A) (A) (A) (A) (A) (A)
                 (A) (A) (A) (A) (A) (A) (A)
       Virtual   (A) (A) (A) (A) (A) (A) (A) (A) (A) (A) (A) (A)
                 (A) (A) (A) (A) (A) (A) (A) (A) (A) (A) (A) (A)
                 (A) (A) (A) (A) (A) (A) (A) (A) (A) (A) (A) (A)
                 (A) (A) (A) (A) (A) (A) (A) (A) (A) (A)
 The electronic state is 1-A.
 Alpha  occ. eigenvalues --  -18.99817 -18.94696 -18.94288 -18.93812 -18.93712
 Alpha  occ. eigenvalues --  -18.93696 -18.93636 -18.93559 -18.92696 -18.91842
 Alpha  occ. eigenvalues --  -18.85322 -10.15848 -10.13685 -10.12386 -10.10739
 Alpha  occ. eigenvalues --  -10.10686 -10.10632 -10.10481 -10.10354 -10.10052
 Alpha  occ. eigenvalues --  -10.09584 -10.08614 -10.06373  -1.05194  -1.02684
 Alpha  occ. eigenvalues --   -0.99978  -0.99371  -0.98712  -0.97780  -0.97281
 Alpha  occ. eigenvalues --   -0.96271  -0.96073  -0.95786  -0.91702  -0.76524
 Alpha  occ. eigenvalues --   -0.75987  -0.73451  -0.72292  -0.66345  -0.65085
 Alpha  occ. eigenvalues --   -0.61676  -0.58319  -0.57806  -0.56634  -0.55253
 Alpha  occ. eigenvalues --   -0.54621  -0.49485  -0.49195  -0.48041  -0.47951
 Alpha  occ. eigenvalues --   -0.47128  -0.45405  -0.45282  -0.44554  -0.44457
 Alpha  occ. eigenvalues --   -0.44133  -0.41568  -0.40905  -0.39594  -0.39418
 Alpha  occ. eigenvalues --   -0.38927  -0.38354  -0.36918  -0.36137  -0.35393
 Alpha  occ. eigenvalues --   -0.34608  -0.33107  -0.33078  -0.32090  -0.29140
 Alpha  occ. eigenvalues --   -0.27116  -0.26107  -0.25373  -0.24902  -0.24475
 Alpha  occ. eigenvalues --   -0.24072  -0.22880  -0.22109  -0.20589  -0.19611
 Alpha  occ. eigenvalues --   -0.18286  -0.17893  -0.16832  -0.16427  -0.16135
 Alpha  occ. eigenvalues --   -0.15893  -0.15325  -0.14939  -0.14025  -0.12128
 Alpha  occ. eigenvalues --   -0.10267
 Alpha virt. eigenvalues --    0.20696   0.23425   0.27621   0.28605   0.29500
 Alpha virt. eigenvalues --    0.30570   0.31519   0.32105   0.33306   0.34933
 Alpha virt. eigenvalues --    0.35538   0.36709   0.37227   0.37393   0.38209
 Alpha virt. eigenvalues --    0.38727   0.39710   0.39887   0.41122   0.41438
 Alpha virt. eigenvalues --    0.42101   0.42922   0.43059   0.43711   0.44763
 Alpha virt. eigenvalues --    0.45191   0.45433   0.46075   0.46419   0.46615
 Alpha virt. eigenvalues --    0.47171   0.47894   0.48139   0.48449   0.48786
 Alpha virt. eigenvalues --    0.49467   0.50096   0.50547   0.51114   0.51881
 Alpha virt. eigenvalues --    0.53085   0.53744   0.54369   0.55446   0.57654
 Alpha virt. eigenvalues --    0.59860
          Condensed to atoms (all electrons):
               1          2          3          4          5          6
     1  O    7.833234   0.267089  -0.018727  -0.000269  -0.001355   0.000114
     2  C    0.267089   4.823042   0.342529  -0.018299  -0.022197  -0.003643
     3  C   -0.018727   0.342529   4.852845   0.262313   0.341429  -0.017657
     4  O   -0.000269  -0.018299   0.262313   7.822665  -0.017505   0.000177
     5  C   -0.001355  -0.022197   0.341429  -0.017505   4.885672   0.319257
     6  C    0.000114  -0.003643  -0.017657   0.000177   0.319257   4.820497
     7  O   -0.000136  -0.017431  -0.001216  -0.000000  -0.013696   0.243699
     8  C   -0.019309   0.348084  -0.026816   0.000249  -0.004526  -0.027794
     9  C   -0.000854  -0.021807   0.000727  -0.000001  -0.000002   0.001378
    10  O    0.000012  -0.001790   0.000004   0.000000  -0.000000  -0.000002
    11  O   -0.000000  -0.000002   0.000154  -0.000000  -0.016239   0.267836
    12  C   -0.000000   0.000000  -0.000006   0.000000   0.000696  -0.023270
    13  C    0.000000   0.000000   0.000000  -0.000000  -0.000002   0.000817
    14  C   -0.000000   0.000000  -0.000000   0.000000   0.000000  -0.000006
    15  C    0.000000   0.000000  -0.000000   0.000000   0.000000  -0.000000
    16  O   -0.000000   0.000000  -0.000000   0.000000   0.000000  -0.000001
    17  C    0.000000  -0.000000   0.000000  -0.000000  -0.000020  -0.000198
    18  C   -0.000000  -0.000001  -0.000000   0.000000   0.000023  -0.003406
    19  O   -0.000000  -0.000005  -0.000000  -0.000000  -0.000002   0.000807
    20  O   -0.000000   0.000000  -0.000000   0.000000   0.000000  -0.000000
    21  O    0.000000  -0.000000   0.000000   0.000000  -0.000000   0.000000
    22  O   -0.000000  -0.000000  -0.000000   0.000000  -0.000000  -0.000006
    23  O    0.000000   0.000257  -0.021217  -0.000564   0.260883  -0.017386
    24  H   -0.015790   0.367461  -0.024765  -0.000346   0.001183   0.000036
    25  H    0.000554  -0.022587   0.363445  -0.017602  -0.027977  -0.000798
    26  H   -0.000007   0.002737  -0.036862   0.242869  -0.004253   0.000055
    27  H    0.000598  -0.001564  -0.024047  -0.001047   0.367058  -0.025683
    28  H   -0.000001  -0.000148  -0.000654  -0.000007  -0.032005   0.358403
    29  H    0.000539  -0.025900  -0.003248   0.000006  -0.000319  -0.004174
    30  H    0.000674  -0.002332   0.000003  -0.000000   0.000000   0.000006
    31  H   -0.000001   0.001210  -0.000015   0.000000  -0.000001  -0.000002
    32  H   -0.000004   0.000112  -0.000000  -0.000000   0.000000   0.000001
    33  H    0.000001  -0.000002  -0.000002   0.000000   0.000092  -0.004124
    34  H    0.000000  -0.000000   0.000000  -0.000000  -0.000000  -0.000010
    35  H   -0.000000  -0.000000  -0.000000   0.000000  -0.000000  -0.000000
    36  H   -0.000000  -0.000000  -0.000000   0.000000   0.000000   0.000000
    37  H   -0.000000   0.000000   0.000000  -0.000000   0.000000   0.000013
    38  H   -0.000000   0.000000  -0.000000  -0.000000  -0.000000   0.000077
    39  H   -0.000000   0.000006   0.000002   0.000000   0.000118  -0.005955
    40  H   -0.000001   0.000156  -0.000002   0.000000   0.000040  -0.001261
    41  H   -0.000000   0.000000  -0.000000   0.000000   0.000000  -0.000000
    42  H    0.000000   0.000000   0.000000  -0.000000   0.000000   0.000001
    43  H    0.000001  -0.000042   0.002877   0.000009  -0.035794  -0.000713
    44  H    0.000000  -0.000000   0.000000   0.000000  -0.000000   0.000000
    45  H    0.252978  -0.033173  -0.001405   0.000929   0.000009  -0.000014
               7          8          9         10         11         12
     1  O   -0.000136  -0.019309  -0.000854   0.000012  -0.000000  -0.000000
     2  C   -0.017431   0.348084  -0.021807  -0.001790  -0.000002   0.000000
     3  C   -0.001216  -0.026816   0.000727   0.000004   0.000154  -0.000006
     4  O   -0.000000   0.000249  -0.000001   0.000000  -0.000000   0.000000
     5  C   -0.013696  -0.004526  -0.000002  -0.000000  -0.016239   0.000696
     6  C    0.243699  -0.027794   0.001378  -0.000002   0.267836  -0.023270
     7  O    7.800054   0.254605  -0.018671   0.000046  -0.011002  -0.001712
     8  C    0.254605   4.814995   0.350850  -0.020163   0.000508   0.000043
     9  C   -0.018671   0.350850   4.824229   0.260521  -0.000002  -0.000001
    10  O    0.000046  -0.020163   0.260521   7.817131   0.000000   0.000000
    11  O   -0.011002   0.000508  -0.000002   0.000000   7.812127   0.260980
    12  C   -0.001712   0.000043  -0.000001   0.000000   0.260980   4.821964
    13  C   -0.000002   0.000000  -0.000000   0.000000  -0.011570   0.350320
    14  C    0.000000  -0.000000  -0.000000   0.000000   0.000155  -0.018927
    15  C    0.000000  -0.000000   0.000000  -0.000000   0.000003  -0.003844
    16  O   -0.000000  -0.000000  -0.000000   0.000000   0.000047  -0.015830
    17  C   -0.000050   0.000002  -0.000001   0.000000  -0.020784   0.333367
    18  C   -0.004708   0.000077   0.000072  -0.000000  -0.000698  -0.020558
    19  O   -0.022405   0.000549  -0.002687   0.000001   0.000019  -0.001622
    20  O    0.000000  -0.000000  -0.000000   0.000000   0.000000   0.000002
    21  O   -0.000000   0.000000  -0.000000   0.000000  -0.000000   0.000220
    22  O    0.000000  -0.000000   0.000000  -0.000000   0.000024  -0.018313
    23  O    0.000033   0.000007   0.000000  -0.000000  -0.000050  -0.000001
    24  H    0.000516  -0.019634  -0.002564   0.001122   0.000000  -0.000000
    25  H    0.000096  -0.002334   0.000018   0.000000  -0.000004   0.000000
    26  H    0.000000  -0.000044   0.000000  -0.000000  -0.000000   0.000000
    27  H    0.000142   0.000153  -0.000004   0.000000  -0.000532   0.000051
    28  H   -0.019191  -0.002453  -0.000003   0.000000  -0.027722   0.001497
    29  H   -0.016506   0.369248  -0.023018  -0.000272  -0.000004   0.000000
    30  H   -0.000666  -0.024543   0.367369  -0.016995  -0.000000  -0.000001
    31  H   -0.000468  -0.021703   0.369337  -0.013113  -0.000000   0.000000
    32  H   -0.000012   0.002832  -0.035693   0.244707  -0.000000  -0.000000
    33  H    0.000617  -0.000044   0.000005  -0.000000  -0.015933   0.364221
    34  H   -0.000000   0.000000   0.000000  -0.000000  -0.000220  -0.024969
    35  H   -0.000000   0.000000   0.000000   0.000000   0.000000  -0.002151
    36  H   -0.000000   0.000000  -0.000000   0.000000   0.000000  -0.000195
    37  H    0.000009   0.000000   0.000000  -0.000000  -0.000098  -0.027919
    38  H    0.000065  -0.000006   0.000003   0.000000  -0.000001   0.001102
    39  H   -0.000646  -0.000119  -0.000006  -0.000000  -0.000248  -0.001352
    40  H    0.032029  -0.006518  -0.002766   0.000027   0.000019  -0.000673
    41  H    0.000000  -0.000000   0.000000  -0.000000   0.000000  -0.000034
    42  H   -0.000000   0.000000  -0.000000   0.000000  -0.000014   0.002767
    43  H   -0.000000  -0.000002  -0.000000  -0.000000   0.000540  -0.000014
    44  H   -0.000000   0.000000  -0.000000   0.000000  -0.000000  -0.000001
    45  H   -0.000003   0.002512   0.000042  -0.000003   0.000000   0.000000
              13         14         15         16         17         18
     1  O    0.000000  -0.000000   0.000000  -0.000000   0.000000  -0.000000
     2  C    0.000000   0.000000   0.000000   0.000000  -0.000000  -0.000001
     3  C    0.000000  -0.000000  -0.000000  -0.000000   0.000000  -0.000000
     4  O   -0.000000   0.000000   0.000000   0.000000  -0.000000   0.000000
     5  C   -0.000002   0.000000   0.000000   0.000000  -0.000020   0.000023
     6  C    0.000817  -0.000006  -0.000000  -0.000001  -0.000198  -0.003406
     7  O   -0.000002   0.000000   0.000000  -0.000000  -0.000050  -0.004708
     8  C    0.000000  -0.000000  -0.000000  -0.000000   0.000002   0.000077
     9  C   -0.000000  -0.000000   0.000000  -0.000000  -0.000001   0.000072
    10  O    0.000000   0.000000  -0.000000   0.000000   0.000000  -0.000000
    11  O   -0.011570   0.000155   0.000003   0.000047  -0.020784  -0.000698
    12  C    0.350320  -0.018927  -0.003844  -0.015830   0.333367  -0.020558
    13  C    4.823028   0.343943  -0.019310  -0.000951  -0.023592   0.000581
[...]
    37  H    3.937245   4.284907   5.748679   6.395134   7.751500
    38  H    4.815377   4.295947   5.557072   5.554552   6.866605
    39  H    3.494311   3.209125   4.485366   4.860215   6.085483
    40  H    2.673697   1.589616   2.734938   2.869828   4.264885
    41  H    6.439792   6.892464   8.026808   8.621137   9.988338
    42  H    4.575233   5.357734   6.348867   7.275568   8.523840
    43  H    2.950511   4.025401   4.743836   5.977124   7.032775
    44  H    7.089088   7.097608   8.458642   8.663787  10.116971
    45  H    3.907913   3.776004   3.241939   3.933021   4.462383
                   11         12         13         14         15
    11  O    0.000000
    12  C    1.469963   0.000000
    13  C    2.506898   1.554109   0.000000
    14  C    3.843112   2.538275   1.554115   0.000000
    15  C    4.206105   2.959156   2.551351   1.567832   0.000000
    16  O    3.749969   2.541072   2.958976   2.453789   1.472167
    17  C    2.420055   1.577405   2.542718   2.874669   2.382078
    18  C    2.922900   2.571856   3.937182   4.319215   3.777771
    19  O    3.344582   2.914247   4.367985   4.711979   4.488838
    20  O    5.599578   4.274174   3.797545   2.428929   1.439108
    21  O    4.834827   3.734705   2.331751   1.461397   2.613895
    22  O    3.198724   2.546702   1.455163   2.365260   3.771612
    23  O    3.183431   3.555381   3.367448   4.699869   5.897553
    24  H    5.309850   5.816125   6.680774   7.731243   8.603619
    25  H    4.111855   4.984378   5.538043   6.896877   7.847866
    26  H    4.494732   4.755773   4.678239   5.797707   7.106299
    27  H    2.906884   2.772804   3.198811   4.190363   5.276662
    28  H    2.041531   3.330143   4.262122   5.685370   6.219796
    29  H    3.991040   4.797867   6.016894   7.162833   7.669415
    30  H    5.005077   4.886337   6.055434   6.608115   7.125795
    31  H    4.676368   4.840299   6.275941   6.943679   7.136188
    32  H    6.681717   6.871024   8.156632   8.815179   9.216980
    33  H    2.154774   1.107122   2.191992   2.836469   3.422635
    34  H    2.657564   2.177103   1.114053   2.186712   2.781253
    35  H    4.169921   2.748671   2.181768   1.111142   2.164755
    36  H    4.230853   3.274846   2.763851   2.218992   1.125271
    37  H    2.561204   2.182601   2.800330   3.280480   2.617253
    38  H    3.966172   3.496128   4.691613   4.788973   3.915860
    39  H    2.715744   2.935840   4.322774   4.993271   4.503195
    40  H    2.730487   2.606601   4.121453   4.762941   4.826536
    41  H    5.666237   4.440063   3.184045   1.963521   2.900496
    42  H    4.090605   3.287767   1.894034   2.181853   3.676999
    43  H    3.068175   3.056943   2.505714   3.748250   5.030702
    44  H    5.951313   4.712844   4.468202   3.269712   1.925322
    45  H    5.056877   5.046287   5.438278   6.249404   7.420698
                   16         17         18         19         20
    16  O    0.000000
    17  C    1.461216   0.000000
    18  C    2.465540   1.583885   0.000000
    19  O    3.150450   2.551200   1.436165   0.000000
    20  O    2.355773   3.641510   4.818742   5.387334   0.000000
    21  O    3.822261   4.226257   5.730294   6.145094   3.056364
    22  O    4.245802   3.873025   5.097200   5.234627   4.793886
    23  O    5.978923   5.097646   5.844641   5.772412   7.087316
    24  H    7.930307   6.995580   6.672722   5.772624   9.676863
    25  H    7.468424   6.337779   6.421954   6.026153   9.099464
    26  H    7.104393   6.325850   6.888742   6.505090   8.170101
    27  H    4.979121   4.258361   4.691849   4.199292   6.341175
    28  H    5.677904   4.334876   4.321681   4.327642   7.587414
    29  H    6.788424   5.635248   5.015445   4.326794   8.866492
    30  H    6.131147   5.566805   4.906410   3.588609   7.939233
    31  H    5.936713   5.159127   4.089213   2.889363   8.064456
    32  H    8.095139   7.409369   6.434345   5.157939  10.057900
    33  H    2.822833   2.196021   2.750155   2.518918   4.524207
    34  H    3.369963   2.816385   4.276432   4.989072   4.088449
    35  H    2.596396   3.177160   4.360785   4.422588   2.660699
    36  H    2.142127   2.598916   4.053762   5.030512   2.146165
    37  H    2.125883   1.114267   2.209675   3.452206   3.937971
    38  H    2.523681   2.176542   1.107933   2.067126   4.722523
    39  H    3.354770   2.169068   1.113059   2.136716   5.668042
    40  H    3.664866   2.776832   1.945787   1.033875   5.872894
    41  H    4.119070   4.802827   6.237645   6.554824   2.852749
    42  H    4.468991   4.378911   5.742746   5.953750   4.483099
    43  H    5.284727   4.576254   5.549480   5.579811   6.164769
    44  H    2.419389   3.753393   4.736503   5.430830   1.018968
    45  H    7.066991   6.445879   6.607584   5.762457   8.324585
                   21         22         23         24         25
    21  O    0.000000
    22  O    2.511182   0.000000
    23  O    4.958810   2.476269   0.000000
    24  H    8.541270   6.218595   4.547571   0.000000
    25  H    7.481537   4.995341   2.748821   2.511226   0.000000
    26  H    6.015345   3.581177   1.636432   3.787837   2.475495
    27  H    4.916482   2.661915   2.109588   3.625007   3.086890
    28  H    6.543796   4.411363   3.058014   3.961186   2.510871
    29  H    8.202661   6.054468   4.665849   2.327457   2.848476
    30  H    7.752620   6.062558   5.609678   3.158901   4.803679
    31  H    8.233807   6.623763   6.142774   3.883656   5.131403
    32  H    9.989357   8.187796   7.331868   3.593701   5.745315
    33  H    4.073114   2.748683   3.630394   5.199705   4.811969
    34  H    2.605222   2.123441   3.702076   7.344774   5.900693
    35  H    2.129872   2.633042   4.843068   7.345748   6.856315
    36  H    2.914445   4.072633   6.065930   9.078964   8.058187
    37  H    4.419282   4.207494   5.356408   7.634400   6.670236
    38  H    6.200616   5.945290   6.900897   7.673819   7.523832
    39  H    6.319219   5.452853   5.831880   6.597497   6.146441
    40  H    6.115355   4.797910   4.954972   4.819873   5.003443
    41  H    1.016038   3.292293   5.753200   9.098280   8.235514
    42  H    1.741999   1.031292   3.333605   7.164460   5.955974
    43  H    3.914697   1.451337   1.049765   5.290390   3.728741
    44  H    3.995789   5.610320   7.795555  10.190444   9.660767
    45  H    6.812899   4.610914   3.439907   2.488367   3.106929
                   26         27         28         29         30
    26  H    0.000000
    27  H    2.380514   0.000000
    28  H    3.938926   3.078138   0.000000
    29  H    4.722399   3.737979   2.557728   0.000000
    30  H    5.374048   3.681859   4.710077   3.083031   0.000000
    31  H    6.269702   4.455215   4.321654   2.615345   1.798664
    32  H    6.935125   5.668779   5.881564   3.499238   2.289142
    33  H    4.488972   2.211335   3.539495   4.429551   3.951322
    34  H    5.204257   4.021750   4.420726   6.503005   6.936062
    35  H    5.677273   3.902224   5.860022   6.964998   5.962482
    36  H    7.439113   5.779074   6.263161   7.989973   7.839206
    37  H    6.756268   4.922813   4.483962   6.134500   6.496598
    38  H    7.955879   5.719960   5.397863   5.986497   5.651885
    39  H    6.947231   4.945988   3.830905   4.683158   5.233708
    40  H    5.627244   3.409752   3.395959   3.360254   3.026230
    41  H    6.650530   5.500923   7.382985   8.864703   8.091560
    42  H    4.321397   3.600052   5.415707   7.076218   6.905433
    43  H    2.347893   2.175679   3.589944   5.292380   5.839845
    44  H    8.932057   6.996813   7.958547   9.190247   8.295533
    45  H    2.353006   2.316383   4.491731   4.015167   3.540552
                   31         32         33         34         35
    31  H    0.000000
    32  H    2.365773   0.000000
    33  H    4.173550   6.063151   0.000000
    34  H    6.968682   8.936633   3.095659   0.000000
    35  H    6.495074   8.218874   2.591516   3.098221   0.000000
    36  H    7.688287   9.856335   4.017518   2.523066   3.103837
    37  H    5.946848   8.235735   3.090476   2.613579   3.879680
    38  H    4.755984   7.070568   3.670485   4.970668   4.826959
    39  H    4.163292   6.516706   3.313248   4.458769   5.180889
    40  H    2.387826   4.649532   2.150600   4.753928   4.505640
    41  H    8.678197  10.364180   4.609899   3.574877   2.235211
    42  H    7.527296   9.086423   3.516652   2.375394   2.550924
    43  H    6.400627   7.765194   3.210310   2.906431   3.953214
    44  H    8.232821  10.310212   5.013728   4.652885   3.517823
    45  H    4.888935   5.059086   4.303670   6.274752   5.741333
                   36         37         38         39         40
    36  H    0.000000
    37  H    2.329670   0.000000
    38  H    4.173436   2.628275   0.000000
    39  H    4.548899   2.334719   1.792288   0.000000
    40  H    5.310848   3.606479   2.868623   2.264196   0.000000
    41  H    3.392443   5.103864   6.602302   6.946032   6.623609
    42  H    3.965860   4.650139   6.478275   6.179812   5.635958
    43  H    5.222745   4.843504   6.538579   5.678432   4.902045
    44  H    2.359625   3.949172   4.415808   5.567933   6.048399
    45  H    8.025696   7.184064   7.602271   6.846785   4.933834
                   41         42         43         44         45
    41  H    0.000000
    42  H    2.484154   0.000000
    43  H    4.712745   2.287450   0.000000
    44  H    3.852053   5.385034   6.920866   0.000000
    45  H    7.237527   5.381601   3.883259   9.019504   0.000000
 Stoichiometry    C12H22O11
 Framework group  C1[X(C12H22O11)]
 Deg. of freedom   129
 Full point group                 C1      NOp   1
 RotChk:  IX=1 Diff= 2.33D-15
 Largest Abelian subgroup         C1      NOp   1
 Largest concise Abelian subgroup C1      NOp   1
                         Standard orientation:                         
 ---------------------------------------------------------------------
 Center     Atomic      Atomic             Coordinates (Angstroms)
 Number     Number       Type             X           Y           Z
 ---------------------------------------------------------------------
      1          8           0       -2.998698   -0.724694    1.751468
      2          6           0       -3.430057   -0.468478    0.394461
      3          6           0       -2.854630   -1.654074   -0.436812
      4          8           0       -2.951625   -2.855233    0.377993
      5          6           0       -1.317508   -1.430625   -0.525860
      6          6           0       -1.042260   -0.138660   -1.375180
      7          8           0       -1.486421    0.982021   -0.518492
      8          6           0       -2.919600    0.899290   -0.210572
      9          6           0       -3.216154    2.064847    0.781360
     10          8           0       -4.660280    2.257405    0.779462
     11          8           0        0.328527    0.121008   -1.742776
     12          6           0        1.178680    0.200613   -0.546243
     13          6           0        2.074086   -1.059309   -0.384685
     14          6           0        3.172896   -0.781883    0.678765
     15          6           0        4.015851    0.468833    0.250707
     16          8           0        3.116860    1.634621    0.256334
     17          6           0        2.109550    1.451258   -0.786191
     18          6           0        1.212638    2.755725   -0.837263
     19          8           0        0.210982    2.849729    0.187637
     20          8           0        5.025267    0.679960    1.254468
     21          8           0        3.824490   -2.087282    0.762667
     22          8           0        1.402118   -2.247131    0.120328
     23          8           0       -0.806031   -2.728968   -0.891512
     24          1           0       -4.540974   -0.425769    0.302586
     25          1           0       -3.317474   -1.755941   -1.440957
     26          1           0       -2.033882   -3.254284    0.054180
     27          1           0       -0.996803   -1.159564    0.505247
     28          1           0       -1.603406   -0.157183   -2.341189
     29          1           0       -3.501401    1.071145   -1.145030
     30          1           0       -2.820682    1.774437    1.778509
     31          1           0       -2.664318    2.971382    0.445069
     32          1           0       -4.770215    2.946656    1.522785
     33          1           0        0.597175    0.368103    0.380858
     34          1           0        2.562486   -1.267742   -1.364039
     35          1           0        2.681409   -0.518812    1.639947
     36          1           0        4.443570    0.308173   -0.777631
     37          1           0        2.595452    1.312430   -1.779275
     38          1           0        1.900451    3.616827   -0.723551
     39          1           0        0.793060    2.793818   -1.867507
     40          1           0       -0.491733    2.154845   -0.116049
     41          1           0        4.307977   -2.051848    1.655594
     42          1           0        2.236796   -2.741643    0.470093
     43          1           0        0.172304   -2.685739   -0.513359
     44          1           0        5.431468    1.565946    0.957274
     45          1           0       -2.923726   -1.761940    1.640915
 ---------------------------------------------------------------------
 Rotational constants (GHZ):           0.3883043           0.1732539           0.1368620
 Leave Link  202 at Fri Jun 18 19:19:46 2021, MaxMem=  2147483648 cpu:               0.0 elap:               0.0
 (Enter /home/matma/Programs/gaussian/G16_x86_SSE4/tar/g16/l301.exe)
 Standard basis: STO-3G (5D, 7F)
 Ernie: Thresh=  0.10000D-02 Tol=  0.10000D-05 Strict=F.
 There are   137 symmetry adapted cartesian basis functions of A   symmetry.
 There are   137 symmetry adapted basis functions of A   symmetry.
   137 basis functions,   411 primitive gaussians,   137 cartesian basis functions
    91 alpha electrons       91 beta electrons
       nuclear repulsion energy      2349.8331400189 Hartrees.
 IExCor= 1009 DFT=T Ex+Corr=PBE1PBE ExCW=0 ScaHFX=  0.250000
 ScaDFX=  0.750000  0.750000  1.000000  1.000000 ScalE2=  1.000000  1.000000
 IRadAn=  99590 IRanWt=     -1 IRanGd=            0 ICorTp=0 IEmpDi=131
 NAtoms=   45 NActive=   45 NUniq=   45 SFac= 1.00D+00 NAtFMM=   60 NAOKFM=F Big=F
 Integral buffers will be    131072 words long.
 Raffenetti 2 integral format.
 Two-electron integral symmetry is turned on.
 R6Disp:  Grimme-D3 Dispersion energy=       -0.0376638067 Hartrees.
 Nuclear repulsion after empirical dispersion term =     2349.7954762123 Hartrees.
 Leave Link  301 at Fri Jun 18 19:19:46 2021, MaxMem=  2147483648 cpu:               0.2 elap:               0.0
 (Enter /home/matma/Programs/gaussian/G16_x86_SSE4/tar/g16/l302.exe)
 NPDir=0 NMtPBC=     1 NCelOv=     1 NCel=       1 NClECP=     1 NCelD=      1
         NCelK=      1 NCelE2=     1 NClLst=     1 CellRange=     0.0.
 One-electron integrals computed using PRISM.
 One-electron integral symmetry used in STVInt
 NBasis=   137 RedAO= T EigKep=  2.21D-01  NBF=   137
 NBsUse=   137 1.00D-06 EigRej= -1.00D+00 NBFU=   137
 Precomputing XC quadrature grid using
 IXCGrd= 4 IRadAn=       99590 IRanWt=          -1 IRanGd=           0 AccXCQ= 0.00D+00.
 Generated NRdTot=       0 NPtTot=           0 NUsed=           0 NTot=          32
 NSgBfM=   133   133   133   133   133 MxSgAt=    45 MxSgA2=    45.
 Leave Link  302 at Fri Jun 18 19:19:47 2021, MaxMem=  2147483648 cpu:               4.5 elap:               0.4
 (Enter /home/matma/Programs/gaussian/G16_x86_SSE4/tar/g16/l303.exe)
 DipDrv:  MaxL=1.
 Leave Link  303 at Fri Jun 18 19:19:47 2021, MaxMem=  2147483648 cpu:               0.2 elap:               0.0
 (Enter /home/matma/Programs/gaussian/G16_x86_SSE4/tar/g16/l401.exe)
 Initial guess from the checkpoint file:  "/scratch-data/gaussian/Gau-28197.chk"
 B after Tr=    -0.000000   -0.000000   -0.000000
         Rot=    1.000000    0.000000   -0.000000    0.000000 Ang=   0.00 deg.
 Guess basis will be translated and rotated to current coordinates.
 JPrj=2 DoOrth=T DoCkMO=T.
 Leave Link  401 at Fri Jun 18 19:19:47 2021, MaxMem=  2147483648 cpu:               0.6 elap:               0.0
 (Enter /home/matma/Programs/gaussian/G16_x86_SSE4/tar/g16/l502.exe)
 Integral symmetry usage will be decided dynamically.
 Closed shell SCF:
 Using DIIS extrapolation, IDIIS=  1040.
 NGot=  2147483648 LenX=  2147441878 LenY=  2147422668
 Requested convergence on RMS density matrix=1.00D-08 within 128 cycles.
 Requested convergence on MAX density matrix=1.00D-06.
 Requested convergence on             energy=1.00D-06.
 No special actions if energy rises.
 Fock matrices will be formed incrementally for  20 cycles.

 Cycle   1  Pass 1  IDiag  1:
 FoFJK:  IHMeth= 1 ICntrl=       0 DoSepK=F KAlg= 0 I1Cent=           0 FoldK=F
 IRaf= 830000000 NMat=       1 IRICut=       1 DoRegI=T DoRafI=F ISym2E= 0 IDoP0=0 IntGTp=1.
 FoFCou: FMM=F IPFlag=           0 FMFlag=      100000 FMFlg1=           0
         NFxFlg=           0 DoJE=F BraDBF=F KetDBF=F FulRan=T
         wScrn=  0.000000 ICntrl=         0 IOpCl=  0 I1Cent=           0 NGrid=           0
         NMat0=    1 NMatS0=      1 NMatT0=    0 NMatD0=    1 NMtDS0=    0 NMtDT0=    0
 Symmetry not used in FoFCou.
 E= -1279.59379860465    
 DIIS: error= 8.26D-09 at cycle   1 NSaved=   1.
 NSaved= 1 IEnMin= 1 EnMin= -1279.59379860465     IErMin= 1 ErrMin= 8.26D-09
 ErrMax= 8.26D-09  0.00D+00 EMaxC= 1.00D-01 BMatC= 3.33D-14 BMatP= 3.33D-14
 IDIUse=1 WtCom= 1.00D+00 WtEn= 0.00D+00
 Coeff-Com:  0.100D+01
 Coeff:      0.100D+01
 Gap=     0.326 Goal=   None    Shift=    0.000
 RMSDP=3.71D-09 MaxDP=1.17D-07              OVMax= 0.00D+00

 SCF Done:  E(RPBE1PBE) =  -1279.59379860     A.U. after    1 cycles
            NFock=  1  Conv=0.37D-08     -V/T= 2.0147
 KE= 1.261111882771D+03 PE=-7.704540650355D+03 EE= 2.814039492767D+03
 Leave Link  502 at Fri Jun 18 19:19:48 2021, MaxMem=  2147483648 cpu:              16.8 elap:               1.4
 (Enter /home/matma/Programs/gaussian/G16_x86_SSE4/tar/g16/l801.exe)
 DoSCS=F DFT=T ScalE2(SS,OS)=  1.000000  1.000000
 Range of M.O.s used for correlation:     1   137
 NBasis=   137 NAE=    91 NBE=    91 NFC=     0 NFV=     0
 NROrb=    137 NOA=    91 NOB=    91 NVA=    46 NVB=    46
 Leave Link  801 at Fri Jun 18 19:19:48 2021, MaxMem=  2147483648 cpu:               0.1 elap:               0.0
 (Enter /home/matma/Programs/gaussian/G16_x86_SSE4/tar/g16/l1101.exe)
 Using compressed storage, NAtomX=    45.
 Will process     46 centers per pass.
 R6Disp: Adding Grimme-D3 dispersion energy 1st derivatives to the gradient.
 Leave Link 1101 at Fri Jun 18 19:19:48 2021, MaxMem=  2147483648 cpu:               1.0 elap:               0.1
 (Enter /home/matma/Programs/gaussian/G16_x86_SSE4/tar/g16/l1102.exe)
 Symmetrizing basis deriv contribution to polar:
 IMax=3 JMax=2 DiffMx= 0.00D+00
 Leave Link 1102 at Fri Jun 18 19:19:48 2021, MaxMem=  2147483648 cpu:               0.2 elap:               0.0
 (Enter /home/matma/Programs/gaussian/G16_x86_SSE4/tar/g16/l1110.exe)
 Forming Gx(P) for the SCF density, NAtomX=    45.
 Integral derivatives from FoFJK, PRISM(SPDF).
 Do as many integral derivatives as possible in FoFJK.
 G2DrvN: MDV=    2147479912.
 G2DrvN: will do    46 centers at a time, making    1 passes.
 Calling FoFCou, ICntrl=  3107 FMM=F I1Cent=   0 AccDes= 0.00D+00.
 FoFJK:  IHMeth= 1 ICntrl=    3107 DoSepK=F KAlg= 0 I1Cent=           0 FoldK=F
 IRaf=         0 NMat=       1 IRICut=       1 DoRegI=T DoRafI=F ISym2E= 0 IDoP0=0 IntGTp=1.
 FoFCou: FMM=F IPFlag=           0 FMFlag=      100000 FMFlg1=           0
         NFxFlg=           0 DoJE=F BraDBF=F KetDBF=F FulRan=T
         wScrn=  0.000000 ICntrl=      3107 IOpCl=  0 I1Cent=           0 NGrid=           0
         NMat0=    1 NMatS0=      1 NMatT0=    0 NMatD0=    1 NMtDS0=    0 NMtDT0=    0
 Symmetry not used in FoFCou.
