 Entering Gaussian System, Link 0=g09
 Initial command:
 /share/apps//g09/l1.exe "/scratch/Gau-4070.inp" -scrdir="/scratch/"
 Entering Link 1 = /share/apps//g09/l1.exe PID=      4071.
  
 Copyright (c) 1988,1990,1992,1993,1995,1998,2003,2009,2013,
            Gaussian, Inc.  All Rights Reserved.
  
 This is part of the Gaussian(R) 09 program.  It is based on
 the Gaussian(R) 03 system (copyright 2003, Gaussian, Inc.),
 the Gaussian(R) 98 system (copyright 1998, Gaussian, Inc.),
 the Gaussian(R) 94 system (copyright 1995, Gaussian, Inc.),
 the Gaussian 92(TM) system (copyright 1992, Gaussian, Inc.),
 the Gaussian 90(TM) system (copyright 1990, Gaussian, Inc.),
 the Gaussian 88(TM) system (copyright 1988, Gaussian, Inc.),
 the Gaussian 86(TM) system (copyright 1986, Carnegie Mellon
 University), and the Gaussian 82(TM) system (copyright 1983,
 Carnegie Mellon University). Gaussian is a federally registered
 trademark of Gaussian, Inc.
  
 This software contains proprietary and confidential information,
 including trade secrets, belonging to Gaussian, Inc.
  
 This software is provided under written license and may be
 used, copied, transmitted, or stored only in accord with that
 written license.
  
 The following legend is applicable only to US Government
 contracts under FAR:
  
                    RESTRICTED RIGHTS LEGEND
  
 Use, reproduction and disclosure by the US Government is
 subject to restrictions as set forth in subparagraphs (a)
 and (c) of the Commercial Computer Software - Restricted
 Rights clause in FAR 52.227-19.
  
 Gaussian, Inc.
 340 Quinnipiac St., Bldg. 40, Wallingford CT 06492
  
  
 ---------------------------------------------------------------
 Warning -- This program may not be used in any manner that
 competes with the business of Gaussian, Inc. or will provide
 assistance to any competitor of Gaussian, Inc.  The licensee
 of this program is prohibited from giving any competitor of
 Gaussian, Inc. access to this program.  By using this program,
 the user acknowledges that Gaussian, Inc. is engaged in the
 business of creating and licensing software in the field of
 computational chemistry and represents and warrants to the
 licensee that it is not a competitor of Gaussian, Inc. and that
 it will not use this program in any manner prohibited above.
 ---------------------------------------------------------------
  

 Cite this work as:
 Gaussian 09, Revision D.01,
 M. J. Frisch, G. W. Trucks, H. B. Schlegel, G. E. Scuseria, 
 M. A. Robb, J. R. Cheeseman, G. Scalmani, V. Barone, B. Mennucci, 
 G. A. Petersson, H. Nakatsuji, M. Caricato, X. Li, H. P. Hratchian, 
 A. F. Izmaylov, J. Bloino, G. Zheng, J. L. Sonnenberg, M. Hada, 
 M. Ehara, K. Toyota, R. Fukuda, J. Hasegawa, M. Ishida, T. Nakajima, 
 Y. Honda, O. Kitao, H. Nakai, T. Vreven, J. A. Montgomery, Jr., 
 J. E. Peralta, F. Ogliaro, M. Bearpark, J. J. Heyd, E. Brothers, 
 K. N. Kudin, V. N. Staroverov, T. Keith, R. Kobayashi, J. Normand, 
 K. Raghavachari, A. Rendell, J. C. Burant, S. S. Iyengar, J. Tomasi, 
 M. Cossi, N. Rega, J. M. Millam, M. Klene, J. E. Knox, J. B. Cross, 
 V. Bakken, C. Adamo, J. Jaramillo, R. Gomperts, R. E. Stratmann, 
 O. Yazyev, A. J. Austin, R. Cammi, C. Pomelli, J. W. Ochterski, 
 R. L. Martin, K. Morokuma, V. G. Zakrzewski, G. A. Voth, 
 P. Salvador, J. J. Dannenberg, S. Dapprich, A. D. Daniels, 
 O. Farkas, J. B. Foresman, J. V. Ortiz, J. Cioslowski, 
 and D. J. Fox, Gaussian, Inc., Wallingford CT, 2013.
 
 ******************************************
 Gaussian 09:  EM64L-G09RevD.01 24-Apr-2013
                20-May-2016 
 ******************************************
 %nproc=20
 Will use up to   20 processors via shared memory.
 %mem=80GB
 %chk=Tri_A154_of.chk
 ----------------------------------------------------------------------
 #P PBE1PBE/6-311+G(d,p) opt=ModRedundant optcyc=999 freq EmpiricalDisp
 ersion=GD3
 ----------------------------------------------------------------------
 1/6=999,14=-1,18=120,19=15,26=3,38=1/1,3;
 2/9=110,12=2,17=6,18=5,40=1/2;
 3/5=4,6=6,7=111,11=2,16=1,25=1,30=1,71=1,74=-13,124=31/1,2,3;
 4//1;
 5/5=2,38=5/2;
 6/7=2,8=2,9=2,10=2,28=1/1;
 7//1,2,3,16;
 1/6=999,14=-1,18=20,19=15,26=3/3(2);
 2/9=110/2;
 99//99;
 2/9=110/2;
 3/5=4,6=6,7=111,11=2,16=1,25=1,30=1,71=1,74=-13,124=31/1,2,3;
 4/5=5,16=3,69=1/1;
 5/5=2,38=5/2;
 7//1,2,3,16;
 1/6=999,14=-1,18=20,19=15,26=3/3(-5);
 2/9=110/2;
 6/7=2,8=2,9=2,10=2,19=2,28=1/1;
 99/9=1/99;
 Leave Link    1 at Fri May 20 14:13:20 2016, MaxMem= 10737418240 cpu:         2.9
 (Enter /share/apps//g09/l101.exe)
 -------
 disacch
 -------
 Symbolic Z-matrix:
 Charge =  1 Multiplicity = 1
 O                     0.76938  -2.69769   5.91025 
 C                    -0.01289  -3.06253   4.76903 
 C                    -0.75423  -4.38141   5.03264 
 C                    -1.65582  -4.23091   6.25624 
 C                    -0.87552  -3.71558   7.46541 
 C                    -0.02411  -2.49186   7.08752 
 C                     0.93179  -2.06807   8.20079 
 O                     1.92475  -3.06686   8.50047 
 O                    -0.03091  -4.75833   7.98595 
 O                    -2.23002  -5.47965   6.64506 
 O                    -1.60422  -4.75264   3.95937 
 O                     0.93157  -3.23051   3.73673 
 C                     0.59749  -2.6982    2.44217 
 C                     0.82076  -3.78648   1.39498 
 O                    -0.05446  -4.89199   1.6294 
 C                     2.2772   -4.24632   1.43627 
 C                     3.23646  -3.0489    1.26896 
 O                     2.9104   -1.98391   2.20467 
 C                     1.54352  -1.53555   2.11096 
 C                     1.40424  -0.34556   3.0593 
 O                     0.02492   0.03185   3.05514 
 O                     4.59426  -3.36395   1.42863 
 C                     4.99093  -4.02986   2.64255 
 C                     5.65282  -5.3653    2.29479 
 C                     6.26978  -6.0218    3.53225 
 C                     7.16573  -5.0402    4.2889 
 O                     6.40264  -3.85454   4.59689 
 C                     5.99971  -3.1504    3.41177 
 C                     5.45606  -1.7933    3.84236 
 O                     4.24446  -1.87889   4.60945 
 O                     7.5435   -5.63984   5.48278 
 C                     8.57087  -4.92265   6.21973 
 C                     8.24481  -4.97435   7.70834 
 C                     6.84285  -4.46068   8.07035 
 C                     6.59732  -2.97617   7.76402 
 C                     5.15092  -2.54318   7.9871 
 N                     4.19481  -3.18679   7.01775 
 O                     6.97654  -7.1645    3.05852 
 O                     4.67862  -6.25019   1.7236 
 O                     2.4521   -5.19596   0.39784 
 H                    -0.72426  -2.25043   4.51465 
 H                     0.01752  -5.14976   5.23003 
 H                    -2.45442  -3.50431   6.00883 
 H                    -1.59227  -3.40398   8.24822 
 H                    -0.72903  -1.65024   6.92165 
 H                     0.35149  -1.83044   9.10798 
 H                     1.47369  -1.16242   7.89393 
 H                     1.42663  -3.92011   8.54909 
 H                    -0.55878  -5.58111   7.92984 
 H                    -2.55858  -5.90165   5.82833 
 H                    -1.0527   -4.95654   3.1683 
 H                    -0.44584  -2.35073   2.41497 
 H                     0.60317  -3.35559   0.39883 
 H                     0.28249  -5.62682   1.08031 
 H                     2.43282  -4.71011   2.42534 
 H                     3.16442  -2.65611   0.23947 
 H                     1.33473  -1.19089   1.08043 
 H                     1.73102  -0.63579   4.07398 
 H                     2.05705   0.46622   2.7011 
 H                    -0.04256   0.96887   3.29874 
 H                     4.12391  -4.20997   3.29795 
 H                     6.45265  -5.17226   1.55461 
 H                     5.45435  -6.31569   4.22169 
 H                     8.04651  -4.75037   3.67618 
 H                     6.87934  -2.95953   2.76372 
 H                     6.20687  -1.30117   4.47625 
 H                     5.28784  -1.17097   2.95219 
 H                     3.51958  -2.01085   3.9503 
 H                     8.61532  -3.88437   5.85809 
 H                     9.54266  -5.40148   6.01882 
 H                     9.01865  -4.39803   8.24189 
 H                     8.33866  -6.01404   8.05769 
 H                     6.66417  -4.64479   9.14183 
 H                     6.1227   -5.09514   7.52492 
 H                     6.88302  -2.74374   6.72764 
 H                     7.23026  -2.35337   8.41574 
 H                     4.80287  -2.80582   8.99609 
 H                     5.03269  -1.45858   7.86412 
 H                     4.45702  -4.16719   6.85957 
 H                     4.20346  -2.70872   6.07146 
 H                     3.21592  -3.16519   7.43476 
 H                     7.29681  -7.66317   3.83134 
 H                     5.12866  -7.10561   1.58835 
 H                     3.26436  -5.70248   0.62571 
 
 The following ModRedundant input section has been read:
 
 NAtoms=     84 NQM=       84 NQMF=       0 NMMI=      0 NMMIF=      0
                NMic=       0 NMicF=      0.
                    Isotopes and Nuclear Properties:
 (Nuclear quadrupole moments (NQMom) in fm**2, nuclear magnetic moments (NMagM)
  in nuclear magnetons)

  Atom         1           2           3           4           5           6           7           8           9          10
 IAtWgt=          16          12          12          12          12          12          12          16          16          16
 AtmWgt=  15.9949146  12.0000000  12.0000000  12.0000000  12.0000000  12.0000000  12.0000000  15.9949146  15.9949146  15.9949146
 NucSpn=           0           0           0           0           0           0           0           0           0           0
 AtZEff=   0.0000000   0.0000000   0.0000000   0.0000000   0.0000000   0.0000000   0.0000000   0.0000000   0.0000000   0.0000000
 NQMom=    0.0000000   0.0000000   0.0000000   0.0000000   0.0000000   0.0000000   0.0000000   0.0000000   0.0000000   0.0000000
 NMagM=    0.0000000   0.0000000   0.0000000   0.0000000   0.0000000   0.0000000   0.0000000   0.0000000   0.0000000   0.0000000
 AtZNuc=   8.0000000   6.0000000   6.0000000   6.0000000   6.0000000   6.0000000   6.0000000   8.0000000   8.0000000   8.0000000

  Atom        11          12          13          14          15          16          17          18          19          20
 IAtWgt=          16          16          12          12          16          12          12          16          12          12
 AtmWgt=  15.9949146  15.9949146  12.0000000  12.0000000  15.9949146  12.0000000  12.0000000  15.9949146  12.0000000  12.0000000
 NucSpn=           0           0           0           0           0           0           0           0           0           0
 AtZEff=   0.0000000   0.0000000   0.0000000   0.0000000   0.0000000   0.0000000   0.0000000   0.0000000   0.0000000   0.0000000
 NQMom=    0.0000000   0.0000000   0.0000000   0.0000000   0.0000000   0.0000000   0.0000000   0.0000000   0.0000000   0.0000000
 NMagM=    0.0000000   0.0000000   0.0000000   0.0000000   0.0000000   0.0000000   0.0000000   0.0000000   0.0000000   0.0000000
 AtZNuc=   8.0000000   8.0000000   6.0000000   6.0000000   8.0000000   6.0000000   6.0000000   8.0000000   6.0000000   6.0000000

  Atom        21          22          23          24          25          26          27          28          29          30
 IAtWgt=          16          16          12          12          12          12          16          12          12          16
 AtmWgt=  15.9949146  15.9949146  12.0000000  12.0000000  12.0000000  12.0000000  15.9949146  12.0000000  12.0000000  15.9949146
 NucSpn=           0           0           0           0           0           0           0           0           0           0
 AtZEff=   0.0000000   0.0000000   0.0000000   0.0000000   0.0000000   0.0000000   0.0000000   0.0000000   0.0000000   0.0000000
 NQMom=    0.0000000   0.0000000   0.0000000   0.0000000   0.0000000   0.0000000   0.0000000   0.0000000   0.0000000   0.0000000
 NMagM=    0.0000000   0.0000000   0.0000000   0.0000000   0.0000000   0.0000000   0.0000000   0.0000000   0.0000000   0.0000000
 AtZNuc=   8.0000000   8.0000000   6.0000000   6.0000000   6.0000000   6.0000000   8.0000000   6.0000000   6.0000000   8.0000000

  Atom        31          32          33          34          35          36          37          38          39          40
 IAtWgt=          16          12          12          12          12          12          14          16          16          16
 AtmWgt=  15.9949146  12.0000000  12.0000000  12.0000000  12.0000000  12.0000000  14.0030740  15.9949146  15.9949146  15.9949146
 NucSpn=           0           0           0           0           0           0           2           0           0           0
 AtZEff=   0.0000000   0.0000000   0.0000000   0.0000000   0.0000000   0.0000000   0.0000000   0.0000000   0.0000000   0.0000000
 NQMom=    0.0000000   0.0000000   0.0000000   0.0000000   0.0000000   0.0000000   2.0440000   0.0000000   0.0000000   0.0000000
 NMagM=    0.0000000   0.0000000   0.0000000   0.0000000   0.0000000   0.0000000   0.4037610   0.0000000   0.0000000   0.0000000
 AtZNuc=   8.0000000   6.0000000   6.0000000   6.0000000   6.0000000   6.0000000   7.0000000   8.0000000   8.0000000   8.0000000

  Atom        41          42          43          44          45          46          47          48          49          50
 IAtWgt=           1           1           1           1           1           1           1           1           1           1
 AtmWgt=   1.0078250   1.0078250   1.0078250   1.0078250   1.0078250   1.0078250   1.0078250   1.0078250   1.0078250   1.0078250
 NucSpn=           1           1           1           1           1           1           1           1           1           1
 AtZEff=   0.0000000   0.0000000   0.0000000   0.0000000   0.0000000   0.0000000   0.0000000   0.0000000   0.0000000   0.0000000
 NQMom=    0.0000000   0.0000000   0.0000000   0.0000000   0.0000000   0.0000000   0.0000000   0.0000000   0.0000000   0.0000000
 NMagM=    2.7928460   2.7928460   2.7928460   2.7928460   2.7928460   2.7928460   2.7928460   2.7928460   2.7928460   2.7928460
 AtZNuc=   1.0000000   1.0000000   1.0000000   1.0000000   1.0000000   1.0000000   1.0000000   1.0000000   1.0000000   1.0000000

  Atom        51          52          53          54          55          56          57          58          59          60
 IAtWgt=           1           1           1           1           1           1           1           1           1           1
 AtmWgt=   1.0078250   1.0078250   1.0078250   1.0078250   1.0078250   1.0078250   1.0078250   1.0078250   1.0078250   1.0078250
 NucSpn=           1           1           1           1           1           1           1           1           1           1
 AtZEff=   0.0000000   0.0000000   0.0000000   0.0000000   0.0000000   0.0000000   0.0000000   0.0000000   0.0000000   0.0000000
 NQMom=    0.0000000   0.0000000   0.0000000   0.0000000   0.0000000   0.0000000   0.0000000   0.0000000   0.0000000   0.0000000
 NMagM=    2.7928460   2.7928460   2.7928460   2.7928460   2.7928460   2.7928460   2.7928460   2.7928460   2.7928460   2.7928460
 AtZNuc=   1.0000000   1.0000000   1.0000000   1.0000000   1.0000000   1.0000000   1.0000000   1.0000000   1.0000000   1.0000000

  Atom        61          62          63          64          65          66          67          68          69          70
 IAtWgt=           1           1           1           1           1           1           1           1           1           1
 AtmWgt=   1.0078250   1.0078250   1.0078250   1.0078250   1.0078250   1.0078250   1.0078250   1.0078250   1.0078250   1.0078250
 NucSpn=           1           1           1           1           1           1           1           1           1           1
 AtZEff=   0.0000000   0.0000000   0.0000000   0.0000000   0.0000000   0.0000000   0.0000000   0.0000000   0.0000000   0.0000000
 NQMom=    0.0000000   0.0000000   0.0000000   0.0000000   0.0000000   0.0000000   0.0000000   0.0000000   0.0000000   0.0000000
 NMagM=    2.7928460   2.7928460   2.7928460   2.7928460   2.7928460   2.7928460   2.7928460   2.7928460   2.7928460   2.7928460
 AtZNuc=   1.0000000   1.0000000   1.0000000   1.0000000   1.0000000   1.0000000   1.0000000   1.0000000   1.0000000   1.0000000

  Atom        71          72          73          74          75          76          77          78          79          80
 IAtWgt=           1           1           1           1           1           1           1           1           1           1
 AtmWgt=   1.0078250   1.0078250   1.0078250   1.0078250   1.0078250   1.0078250   1.0078250   1.0078250   1.0078250   1.0078250
 NucSpn=           1           1           1           1           1           1           1           1           1           1
 AtZEff=   0.0000000   0.0000000   0.0000000   0.0000000   0.0000000   0.0000000   0.0000000   0.0000000   0.0000000   0.0000000
 NQMom=    0.0000000   0.0000000   0.0000000   0.0000000   0.0000000   0.0000000   0.0000000   0.0000000   0.0000000   0.0000000
 NMagM=    2.7928460   2.7928460   2.7928460   2.7928460   2.7928460   2.7928460   2.7928460   2.7928460   2.7928460   2.7928460
 AtZNuc=   1.0000000   1.0000000   1.0000000   1.0000000   1.0000000   1.0000000   1.0000000   1.0000000   1.0000000   1.0000000

  Atom        81          82          83          84
 IAtWgt=           1           1           1           1
 AtmWgt=   1.0078250   1.0078250   1.0078250   1.0078250
 NucSpn=           1           1           1           1
 AtZEff=   0.0000000   0.0000000   0.0000000   0.0000000
 NQMom=    0.0000000   0.0000000   0.0000000   0.0000000
 NMagM=    2.7928460   2.7928460   2.7928460   2.7928460
 AtZNuc=   1.0000000   1.0000000   1.0000000   1.0000000
 Leave Link  101 at Fri May 20 14:13:20 2016, MaxMem= 10737418240 cpu:         4.9
 (Enter /share/apps//g09/l103.exe)

 GradGradGradGradGradGradGradGradGradGradGradGradGradGradGradGradGradGrad
 Berny optimization.
 Initialization pass.
                           ----------------------------
                           !    Initial Parameters    !
                           ! (Angstroms and Degrees)  !
 --------------------------                            --------------------------
 ! Name  Definition              Value          Derivative Info.                !
 --------------------------------------------------------------------------------
 ! R1    R(1,2)                  1.4309         estimate D2E/DX2                !
 ! R2    R(1,6)                  1.4346         estimate D2E/DX2                !
 ! R3    R(2,3)                  1.5357         estimate D2E/DX2                !
 ! R4    R(2,12)                 1.4092         estimate D2E/DX2                !
 ! R5    R(2,41)                 1.1092         estimate D2E/DX2                !
 ! R6    R(3,4)                  1.5273         estimate D2E/DX2                !
 ! R7    R(3,11)                 1.4185         estimate D2E/DX2                !
 ! R8    R(3,42)                 1.1068         estimate D2E/DX2                !
 ! R9    R(4,5)                  1.5286         estimate D2E/DX2                !
 ! R10   R(4,10)                 1.4284         estimate D2E/DX2                !
 ! R11   R(4,43)                 1.1077         estimate D2E/DX2                !
 ! R12   R(5,6)                  1.5379         estimate D2E/DX2                !
 ! R13   R(5,9)                  1.4393         estimate D2E/DX2                !
 ! R14   R(5,44)                 1.1062         estimate D2E/DX2                !
 ! R15   R(6,7)                  1.5273         estimate D2E/DX2                !
 ! R16   R(6,45)                 1.1103         estimate D2E/DX2                !
 ! R17   R(7,8)                  1.4399         estimate D2E/DX2                !
 ! R18   R(7,46)                 1.1028         estimate D2E/DX2                !
 ! R19   R(7,47)                 1.0991         estimate D2E/DX2                !
 ! R20   R(8,48)                 0.9892         estimate D2E/DX2                !
 ! R21   R(9,49)                 0.9792         estimate D2E/DX2                !
 ! R22   R(10,50)                0.9763         estimate D2E/DX2                !
 ! R23   R(11,51)                0.9857         estimate D2E/DX2                !
 ! R24   R(12,13)                1.439          estimate D2E/DX2                !
 ! R25   R(13,14)                1.5267         estimate D2E/DX2                !
 ! R26   R(13,19)                1.5351         estimate D2E/DX2                !
 ! R27   R(13,52)                1.1            estimate D2E/DX2                !
 ! R28   R(14,15)                1.4294         estimate D2E/DX2                !
 ! R29   R(14,16)                1.5279         estimate D2E/DX2                !
 ! R30   R(14,53)                1.1069         estimate D2E/DX2                !
 ! R31   R(15,54)                0.9772         estimate D2E/DX2                !
 ! R32   R(16,17)                1.5434         estimate D2E/DX2                !
 ! R33   R(16,40)                1.418          estimate D2E/DX2                !
 ! R34   R(16,55)                1.1034         estimate D2E/DX2                !
 ! R35   R(17,18)                1.4547         estimate D2E/DX2                !
 ! R36   R(17,22)                1.403          estimate D2E/DX2                !
 ! R37   R(17,56)                1.1042         estimate D2E/DX2                !
 ! R38   R(18,19)                1.4416         estimate D2E/DX2                !
 ! R39   R(19,20)                1.528          estimate D2E/DX2                !
 ! R40   R(19,57)                1.1065         estimate D2E/DX2                !
 ! R41   R(20,21)                1.43           estimate D2E/DX2                !
 ! R42   R(20,58)                1.1048         estimate D2E/DX2                !
 ! R43   R(20,59)                1.1016         estimate D2E/DX2                !
 ! R44   R(21,60)                0.9705         estimate D2E/DX2                !
 ! R45   R(22,23)                1.4403         estimate D2E/DX2                !
 ! R46   R(23,24)                1.5305         estimate D2E/DX2                !
 ! R47   R(23,28)                1.5436         estimate D2E/DX2                !
 ! R48   R(23,61)                1.1017         estimate D2E/DX2                !
 ! R49   R(24,25)                1.5307         estimate D2E/DX2                !
 ! R50   R(24,39)                1.4347         estimate D2E/DX2                !
 ! R51   R(24,62)                1.1067         estimate D2E/DX2                !
 ! R52   R(25,26)                1.5293         estimate D2E/DX2                !
 ! R53   R(25,38)                1.4247         estimate D2E/DX2                !
 ! R54   R(25,63)                1.1075         estimate D2E/DX2                !
 ! R55   R(26,27)                1.4432         estimate D2E/DX2                !
 ! R56   R(26,31)                1.3884         estimate D2E/DX2                !
 ! R57   R(26,64)                1.1114         estimate D2E/DX2                !
 ! R58   R(27,28)                1.4362         estimate D2E/DX2                !
 ! R59   R(28,29)                1.524          estimate D2E/DX2                !
 ! R60   R(28,65)                1.1091         estimate D2E/DX2                !
 ! R61   R(29,30)                1.4366         estimate D2E/DX2                !
 ! R62   R(29,66)                1.099          estimate D2E/DX2                !
 ! R63   R(29,67)                1.0991         estimate D2E/DX2                !
 ! R64   R(30,68)                0.9886         estimate D2E/DX2                !
 ! R65   R(31,32)                1.4536         estimate D2E/DX2                !
 ! R66   R(32,33)                1.5248         estimate D2E/DX2                !
 ! R67   R(32,69)                1.1004         estimate D2E/DX2                !
 ! R68   R(32,70)                1.1018         estimate D2E/DX2                !
 ! R69   R(33,34)                1.5364         estimate D2E/DX2                !
 ! R70   R(33,71)                1.1026         estimate D2E/DX2                !
 ! R71   R(33,72)                1.1008         estimate D2E/DX2                !
 ! R72   R(34,35)                1.5355         estimate D2E/DX2                !
 ! R73   R(34,73)                1.1018         estimate D2E/DX2                !
 ! R74   R(34,74)                1.1039         estimate D2E/DX2                !
 ! R75   R(35,36)                1.5262         estimate D2E/DX2                !
 ! R76   R(35,75)                1.0999         estimate D2E/DX2                !
 ! R77   R(35,76)                1.1015         estimate D2E/DX2                !
 ! R78   R(36,37)                1.506          estimate D2E/DX2                !
 ! R79   R(36,77)                1.0992         estimate D2E/DX2                !
 ! R80   R(36,78)                1.0979         estimate D2E/DX2                !
 ! R81   R(37,79)                1.0271         estimate D2E/DX2                !
 ! R82   R(37,80)                1.0602         estimate D2E/DX2                !
 ! R83   R(37,81)                1.0642         estimate D2E/DX2                !
 ! R84   R(38,82)                0.9739         estimate D2E/DX2                !
 ! R85   R(39,83)                0.976          estimate D2E/DX2                !
 ! R86   R(40,84)                0.984          estimate D2E/DX2                !
 ! A1    A(2,1,6)              112.8741         estimate D2E/DX2                !
 ! A2    A(1,2,3)              110.2413         estimate D2E/DX2                !
 ! A3    A(1,2,12)             104.3731         estimate D2E/DX2                !
 ! A4    A(1,2,41)             110.2953         estimate D2E/DX2                !
 ! A5    A(3,2,12)             110.2975         estimate D2E/DX2                !
 ! A6    A(3,2,41)             111.011          estimate D2E/DX2                !
 ! A7    A(12,2,41)            110.433          estimate D2E/DX2                !
 ! A8    A(2,3,4)              109.7457         estimate D2E/DX2                !
 ! A9    A(2,3,11)             112.5895         estimate D2E/DX2                !
 ! A10   A(2,3,42)             106.8703         estimate D2E/DX2                !
 ! A11   A(4,3,11)             106.1542         estimate D2E/DX2                !
 ! A12   A(4,3,42)             109.7033         estimate D2E/DX2                !
 ! A13   A(11,3,42)            111.7828         estimate D2E/DX2                !
 ! A14   A(3,4,5)              111.4458         estimate D2E/DX2                !
 ! A15   A(3,4,10)             111.6685         estimate D2E/DX2                !
 ! A16   A(3,4,43)             108.1371         estimate D2E/DX2                !
 ! A17   A(5,4,10)             106.5357         estimate D2E/DX2                !
 ! A18   A(5,4,43)             108.8797         estimate D2E/DX2                !
 ! A19   A(10,4,43)            110.1484         estimate D2E/DX2                !
 ! A20   A(4,5,6)              110.8848         estimate D2E/DX2                !
 ! A21   A(4,5,9)              109.962          estimate D2E/DX2                !
 ! A22   A(4,5,44)             108.9053         estimate D2E/DX2                !
 ! A23   A(6,5,9)              109.905          estimate D2E/DX2                !
 ! A24   A(6,5,44)             107.9665         estimate D2E/DX2                !
 ! A25   A(9,5,44)             109.1699         estimate D2E/DX2                !
 ! A26   A(1,6,5)              113.1847         estimate D2E/DX2                !
 ! A27   A(1,6,7)              106.966          estimate D2E/DX2                !
 ! A28   A(1,6,45)             109.7147         estimate D2E/DX2                !
 ! A29   A(5,6,7)              112.8406         estimate D2E/DX2                !
 ! A30   A(5,6,45)             106.7607         estimate D2E/DX2                !
 ! A31   A(7,6,45)             107.213          estimate D2E/DX2                !
 ! A32   A(6,7,8)              113.0061         estimate D2E/DX2                !
 ! A33   A(6,7,46)             109.2726         estimate D2E/DX2                !
 ! A34   A(6,7,47)             109.494          estimate D2E/DX2                !
 ! A35   A(8,7,46)             109.9452         estimate D2E/DX2                !
 ! A36   A(8,7,47)             106.838          estimate D2E/DX2                !
 ! A37   A(46,7,47)            108.1528         estimate D2E/DX2                !
 ! A38   A(7,8,48)             105.1467         estimate D2E/DX2                !
 ! A39   A(5,9,49)             105.7649         estimate D2E/DX2                !
 ! A40   A(4,10,50)            106.5865         estimate D2E/DX2                !
 ! A41   A(3,11,51)            109.0317         estimate D2E/DX2                !
 ! A42   A(2,12,13)            117.3423         estimate D2E/DX2                !
 ! A43   A(12,13,14)           108.6277         estimate D2E/DX2                !
 ! A44   A(12,13,19)           109.3411         estimate D2E/DX2                !
 ! A45   A(12,13,52)           111.0562         estimate D2E/DX2                !
 ! A46   A(14,13,19)           107.5641         estimate D2E/DX2                !
 ! A47   A(14,13,52)           110.2989         estimate D2E/DX2                !
 ! A48   A(19,13,52)           109.8736         estimate D2E/DX2                !
 ! A49   A(13,14,15)           110.4434         estimate D2E/DX2                !
 ! A50   A(13,14,16)           109.5975         estimate D2E/DX2                !
 ! A51   A(13,14,53)           108.1219         estimate D2E/DX2                !
 ! A52   A(15,14,16)           110.272          estimate D2E/DX2                !
 ! A53   A(15,14,53)           109.1649         estimate D2E/DX2                !
 ! A54   A(16,14,53)           109.1992         estimate D2E/DX2                !
 ! A55   A(14,15,54)           106.1586         estimate D2E/DX2                !
 ! A56   A(14,16,17)           110.8575         estimate D2E/DX2                !
 ! A57   A(14,16,40)           107.4182         estimate D2E/DX2                !
 ! A58   A(14,16,55)           106.5686         estimate D2E/DX2                !
 ! A59   A(17,16,40)           111.3176         estimate D2E/DX2                !
 ! A60   A(17,16,55)           109.6098         estimate D2E/DX2                !
 ! A61   A(40,16,55)           110.9489         estimate D2E/DX2                !
 ! A62   A(16,17,18)           111.0366         estimate D2E/DX2                !
 ! A63   A(16,17,22)           114.5167         estimate D2E/DX2                !
 ! A64   A(16,17,56)           109.6637         estimate D2E/DX2                !
 ! A65   A(18,17,22)           107.9462         estimate D2E/DX2                !
 ! A66   A(18,17,56)           108.9449         estimate D2E/DX2                !
 ! A67   A(22,17,56)           104.4255         estimate D2E/DX2                !
 ! A68   A(17,18,19)           113.4794         estimate D2E/DX2                !
 ! A69   A(13,19,18)           109.5576         estimate D2E/DX2                !
 ! A70   A(13,19,20)           113.5632         estimate D2E/DX2                !
 ! A71   A(13,19,57)           108.6977         estimate D2E/DX2                !
 ! A72   A(18,19,20)           106.7561         estimate D2E/DX2                !
 ! A73   A(18,19,57)           109.6535         estimate D2E/DX2                !
 ! A74   A(20,19,57)           108.5565         estimate D2E/DX2                !
 ! A75   A(19,20,21)           106.9567         estimate D2E/DX2                !
 ! A76   A(19,20,58)           109.7832         estimate D2E/DX2                !
 ! A77   A(19,20,59)           108.5467         estimate D2E/DX2                !
 ! A78   A(21,20,58)           110.9342         estimate D2E/DX2                !
 ! A79   A(21,20,59)           112.0966         estimate D2E/DX2                !
 ! A80   A(58,20,59)           108.4787         estimate D2E/DX2                !
 ! A81   A(20,21,60)           108.7321         estimate D2E/DX2                !
 ! A82   A(17,22,23)           117.7936         estimate D2E/DX2                !
 ! A83   A(22,23,24)           109.3307         estimate D2E/DX2                !
 ! A84   A(22,23,28)           109.6682         estimate D2E/DX2                !
 ! A85   A(22,23,61)           111.1156         estimate D2E/DX2                !
 ! A86   A(24,23,28)           109.131          estimate D2E/DX2                !
 ! A87   A(24,23,61)           109.4432         estimate D2E/DX2                !
 ! A88   A(28,23,61)           108.1195         estimate D2E/DX2                !
 ! A89   A(23,24,25)           111.3985         estimate D2E/DX2                !
 ! A90   A(23,24,39)           109.5711         estimate D2E/DX2                !
 ! A91   A(23,24,62)           108.1986         estimate D2E/DX2                !
 ! A92   A(25,24,39)           109.3308         estimate D2E/DX2                !
 ! A93   A(25,24,62)           108.9172         estimate D2E/DX2                !
 ! A94   A(39,24,62)           109.393          estimate D2E/DX2                !
 ! A95   A(24,25,26)           111.1516         estimate D2E/DX2                !
 ! A96   A(24,25,38)           105.9705         estimate D2E/DX2                !
 ! A97   A(24,25,63)           108.6816         estimate D2E/DX2                !
 ! A98   A(26,25,38)           112.8741         estimate D2E/DX2                !
 ! A99   A(26,25,63)           107.0777         estimate D2E/DX2                !
 ! A100  A(38,25,63)           111.0636         estimate D2E/DX2                !
 ! A101  A(25,26,27)           108.8521         estimate D2E/DX2                !
 ! A102  A(25,26,31)           107.9171         estimate D2E/DX2                !
 ! A103  A(25,26,64)           111.0329         estimate D2E/DX2                !
 ! A104  A(27,26,31)           108.3712         estimate D2E/DX2                !
 ! A105  A(27,26,64)           108.8101         estimate D2E/DX2                !
 ! A106  A(31,26,64)           111.7814         estimate D2E/DX2                !
 ! A107  A(26,27,28)           112.0255         estimate D2E/DX2                !
 ! A108  A(23,28,27)           108.3739         estimate D2E/DX2                !
 ! A109  A(23,28,29)           114.5195         estimate D2E/DX2                !
 ! A110  A(23,28,65)           108.9762         estimate D2E/DX2                !
 ! A111  A(27,28,29)           107.6688         estimate D2E/DX2                !
 ! A112  A(27,28,65)           110.1216         estimate D2E/DX2                !
 ! A113  A(29,28,65)           107.1425         estimate D2E/DX2                !
 ! A114  A(28,29,30)           113.4949         estimate D2E/DX2                !
 ! A115  A(28,29,66)           108.5432         estimate D2E/DX2                !
 ! A116  A(28,29,67)           109.267          estimate D2E/DX2                !
 ! A117  A(30,29,66)           107.1509         estimate D2E/DX2                !
 ! A118  A(30,29,67)           109.7018         estimate D2E/DX2                !
 ! A119  A(66,29,67)           108.5522         estimate D2E/DX2                !
 ! A120  A(29,30,68)           105.6843         estimate D2E/DX2                !
 ! A121  A(26,31,32)           114.5301         estimate D2E/DX2                !
 ! A122  A(31,32,33)           109.0923         estimate D2E/DX2                !
 ! A123  A(31,32,69)           109.116          estimate D2E/DX2                !
 ! A124  A(31,32,70)           108.4516         estimate D2E/DX2                !
 ! A125  A(33,32,69)           111.1919         estimate D2E/DX2                !
 ! A126  A(33,32,70)           110.6027         estimate D2E/DX2                !
 ! A127  A(69,32,70)           108.331          estimate D2E/DX2                !
 ! A128  A(32,33,34)           114.4461         estimate D2E/DX2                !
 ! A129  A(32,33,71)           107.7359         estimate D2E/DX2                !
 ! A130  A(32,33,72)           108.8819         estimate D2E/DX2                !
 ! A131  A(34,33,71)           110.5894         estimate D2E/DX2                !
 ! A132  A(34,33,72)           108.59           estimate D2E/DX2                !
 ! A133  A(71,33,72)           106.2764         estimate D2E/DX2                !
 ! A134  A(33,34,35)           114.9694         estimate D2E/DX2                !
 ! A135  A(33,34,73)           108.7397         estimate D2E/DX2                !
 ! A136  A(33,34,74)           106.6611         estimate D2E/DX2                !
 ! A137  A(35,34,73)           109.2462         estimate D2E/DX2                !
 ! A138  A(35,34,74)           110.6559         estimate D2E/DX2                !
 ! A139  A(73,34,74)           106.1805         estimate D2E/DX2                !
 ! A140  A(34,35,36)           113.369          estimate D2E/DX2                !
 ! A141  A(34,35,75)           110.5327         estimate D2E/DX2                !
 ! A142  A(34,35,76)           109.6769         estimate D2E/DX2                !
 ! A143  A(36,35,75)           108.9018         estimate D2E/DX2                !
 ! A144  A(36,35,76)           107.3187         estimate D2E/DX2                !
 ! A145  A(75,35,76)           106.7844         estimate D2E/DX2                !
 ! A146  A(35,36,37)           112.7272         estimate D2E/DX2                !
 ! A147  A(35,36,77)           111.4983         estimate D2E/DX2                !
 ! A148  A(35,36,78)           111.4653         estimate D2E/DX2                !
 ! A149  A(37,36,77)           106.7206         estimate D2E/DX2                !
 ! A150  A(37,36,78)           106.3625         estimate D2E/DX2                !
 ! A151  A(77,36,78)           107.744          estimate D2E/DX2                !
 ! A152  A(36,37,79)           110.1806         estimate D2E/DX2                !
 ! A153  A(36,37,80)           112.1235         estimate D2E/DX2                !
 ! A154  A(36,37,81)           108.8488         estimate D2E/DX2                !
 ! A155  A(79,37,80)           106.9099         estimate D2E/DX2                !
 ! A156  A(79,37,81)           108.3328         estimate D2E/DX2                !
 ! A157  A(80,37,81)           110.3701         estimate D2E/DX2                !
 ! A158  A(25,38,82)           108.0571         estimate D2E/DX2                !
 ! A159  A(24,39,83)           106.4181         estimate D2E/DX2                !
 ! A160  A(16,40,84)           106.0789         estimate D2E/DX2                !
 ! D1    D(6,1,2,3)            -60.9974         estimate D2E/DX2                !
 ! D2    D(6,1,2,12)          -179.4328         estimate D2E/DX2                !
 ! D3    D(6,1,2,41)            61.9461         estimate D2E/DX2                !
 ! D4    D(2,1,6,5)             56.8934         estimate D2E/DX2                !
 ! D5    D(2,1,6,7)           -178.2065         estimate D2E/DX2                !
 ! D6    D(2,1,6,45)           -62.2316         estimate D2E/DX2                !
 ! D7    D(1,2,3,4)             58.7401         estimate D2E/DX2                !
 ! D8    D(1,2,3,11)           176.7424         estimate D2E/DX2                !
 ! D9    D(1,2,3,42)           -60.153          estimate D2E/DX2                !
 ! D10   D(12,2,3,4)           173.4785         estimate D2E/DX2                !
 ! D11   D(12,2,3,11)          -68.5192         estimate D2E/DX2                !
 ! D12   D(12,2,3,42)           54.5854         estimate D2E/DX2                !
 ! D13   D(41,2,3,4)           -63.7837         estimate D2E/DX2                !
 ! D14   D(41,2,3,11)           54.2186         estimate D2E/DX2                !
 ! D15   D(41,2,3,42)          177.3232         estimate D2E/DX2                !
 ! D16   D(1,2,12,13)         -137.6641         estimate D2E/DX2                !
 ! D17   D(3,2,12,13)          103.9389         estimate D2E/DX2                !
 ! D18   D(41,2,12,13)         -19.1368         estimate D2E/DX2                !
 ! D19   D(2,3,4,5)            -53.2882         estimate D2E/DX2                !
 ! D20   D(2,3,4,10)          -172.3077         estimate D2E/DX2                !
 ! D21   D(2,3,4,43)            66.3487         estimate D2E/DX2                !
 ! D22   D(11,3,4,5)          -175.2176         estimate D2E/DX2                !
 ! D23   D(11,3,4,10)           65.7629         estimate D2E/DX2                !
 ! D24   D(11,3,4,43)          -55.5806         estimate D2E/DX2                !
 ! D25   D(42,3,4,5)            63.8449         estimate D2E/DX2                !
 ! D26   D(42,3,4,10)          -55.1746         estimate D2E/DX2                !
 ! D27   D(42,3,4,43)         -176.5182         estimate D2E/DX2                !
 ! D28   D(2,3,11,51)           65.9665         estimate D2E/DX2                !
 ! D29   D(4,3,11,51)         -173.936          estimate D2E/DX2                !
 ! D30   D(42,3,11,51)         -54.3484         estimate D2E/DX2                !
 ! D31   D(3,4,5,6)             48.5558         estimate D2E/DX2                !
 ! D32   D(3,4,5,9)            -73.199          estimate D2E/DX2                !
 ! D33   D(3,4,5,44)           167.2185         estimate D2E/DX2                !
 ! D34   D(10,4,5,6)           170.5911         estimate D2E/DX2                !
 ! D35   D(10,4,5,9)            48.8363         estimate D2E/DX2                !
 ! D36   D(10,4,5,44)          -70.7462         estimate D2E/DX2                !
 ! D37   D(43,4,5,6)           -70.6404         estimate D2E/DX2                !
 ! D38   D(43,4,5,9)           167.6048         estimate D2E/DX2                !
 ! D39   D(43,4,5,44)           48.0224         estimate D2E/DX2                !
 ! D40   D(3,4,10,50)          -45.9241         estimate D2E/DX2                !
 ! D41   D(5,4,10,50)         -167.8184         estimate D2E/DX2                !
 ! D42   D(43,4,10,50)          74.2463         estimate D2E/DX2                !
 ! D43   D(4,5,6,1)            -49.6963         estimate D2E/DX2                !
 ! D44   D(4,5,6,7)           -171.3538         estimate D2E/DX2                !
 ! D45   D(4,5,6,45)            71.117          estimate D2E/DX2                !
 ! D46   D(9,5,6,1)             72.0919         estimate D2E/DX2                !
 ! D47   D(9,5,6,7)            -49.5656         estimate D2E/DX2                !
 ! D48   D(9,5,6,45)          -167.0948         estimate D2E/DX2                !
 ! D49   D(44,5,6,1)          -168.9249         estimate D2E/DX2                !
 ! D50   D(44,5,6,7)            69.4176         estimate D2E/DX2                !
 ! D51   D(44,5,6,45)          -48.1116         estimate D2E/DX2                !
 ! D52   D(4,5,9,49)           -39.6404         estimate D2E/DX2                !
 ! D53   D(6,5,9,49)          -161.9771         estimate D2E/DX2                !
 ! D54   D(44,5,9,49)           79.7808         estimate D2E/DX2                !
 ! D55   D(1,6,7,8)            -61.1949         estimate D2E/DX2                !
 ! D56   D(1,6,7,46)           176.0489         estimate D2E/DX2                !
 ! D57   D(1,6,7,47)            57.7613         estimate D2E/DX2                !
 ! D58   D(5,6,7,8)             63.9138         estimate D2E/DX2                !
 ! D59   D(5,6,7,46)           -58.8423         estimate D2E/DX2                !
 ! D60   D(5,6,7,47)          -177.1299         estimate D2E/DX2                !
 ! D61   D(45,6,7,8)          -178.8235         estimate D2E/DX2                !
 ! D62   D(45,6,7,46)           58.4203         estimate D2E/DX2                !
 ! D63   D(45,6,7,47)          -59.8673         estimate D2E/DX2                !
 ! D64   D(6,7,8,48)           -45.6767         estimate D2E/DX2                !
 ! D65   D(46,7,8,48)           76.7042         estimate D2E/DX2                !
 ! D66   D(47,7,8,48)         -166.1599         estimate D2E/DX2                !
 ! D67   D(2,12,13,14)        -129.7935         estimate D2E/DX2                !
 ! D68   D(2,12,13,19)         113.089          estimate D2E/DX2                !
 ! D69   D(2,12,13,52)          -8.3229         estimate D2E/DX2                !
 ! D70   D(12,13,14,15)         63.0049         estimate D2E/DX2                !
 ! D71   D(12,13,14,16)        -58.678          estimate D2E/DX2                !
 ! D72   D(12,13,14,53)       -177.6128         estimate D2E/DX2                !
 ! D73   D(19,13,14,15)       -178.7473         estimate D2E/DX2                !
 ! D74   D(19,13,14,16)         59.5698         estimate D2E/DX2                !
 ! D75   D(19,13,14,53)        -59.365          estimate D2E/DX2                !
 ! D76   D(52,13,14,15)        -58.9284         estimate D2E/DX2                !
 ! D77   D(52,13,14,16)        179.3887         estimate D2E/DX2                !
 ! D78   D(52,13,14,53)         60.4539         estimate D2E/DX2                !
 ! D79   D(12,13,19,18)         55.4288         estimate D2E/DX2                !
 ! D80   D(12,13,19,20)        -63.8274         estimate D2E/DX2                !
 ! D81   D(12,13,19,57)        175.2331         estimate D2E/DX2                !
 ! D82   D(14,13,19,18)        -62.3578         estimate D2E/DX2                !
 ! D83   D(14,13,19,20)        178.3861         estimate D2E/DX2                !
 ! D84   D(14,13,19,57)         57.4465         estimate D2E/DX2                !
 ! D85   D(52,13,19,18)        177.5534         estimate D2E/DX2                !
 ! D86   D(52,13,19,20)         58.2973         estimate D2E/DX2                !
 ! D87   D(52,13,19,57)        -62.6423         estimate D2E/DX2                !
 ! D88   D(13,14,15,54)       -166.3624         estimate D2E/DX2                !
 ! D89   D(16,14,15,54)        -45.0789         estimate D2E/DX2                !
 ! D90   D(53,14,15,54)         74.8885         estimate D2E/DX2                !
 ! D91   D(13,14,16,17)        -54.8189         estimate D2E/DX2                !
 ! D92   D(13,14,16,40)       -176.6396         estimate D2E/DX2                !
 ! D93   D(13,14,16,55)         64.3945         estimate D2E/DX2                !
 ! D94   D(15,14,16,17)       -176.6046         estimate D2E/DX2                !
 ! D95   D(15,14,16,40)         61.5747         estimate D2E/DX2                !
 ! D96   D(15,14,16,55)        -57.3912         estimate D2E/DX2                !
 ! D97   D(53,14,16,17)         63.4486         estimate D2E/DX2                !
 ! D98   D(53,14,16,40)        -58.372          estimate D2E/DX2                !
 ! D99   D(53,14,16,55)       -177.338          estimate D2E/DX2                !
 ! D100  D(14,16,17,18)         51.3751         estimate D2E/DX2                !
 ! D101  D(14,16,17,22)        173.9394         estimate D2E/DX2                !
 ! D102  D(14,16,17,56)        -69.0768         estimate D2E/DX2                !
 ! D103  D(40,16,17,18)        170.8834         estimate D2E/DX2                !
 ! D104  D(40,16,17,22)        -66.5523         estimate D2E/DX2                !
 ! D105  D(40,16,17,56)         50.4315         estimate D2E/DX2                !
 ! D106  D(55,16,17,18)        -65.9924         estimate D2E/DX2                !
 ! D107  D(55,16,17,22)         56.572          estimate D2E/DX2                !
 ! D108  D(55,16,17,56)        173.5557         estimate D2E/DX2                !
 ! D109  D(14,16,40,84)       -160.6736         estimate D2E/DX2                !
 ! D110  D(17,16,40,84)         77.7933         estimate D2E/DX2                !
 ! D111  D(55,16,40,84)        -44.5614         estimate D2E/DX2                !
 ! D112  D(16,17,18,19)        -55.5722         estimate D2E/DX2                !
 ! D113  D(22,17,18,19)        178.1364         estimate D2E/DX2                !
 ! D114  D(56,17,18,19)         65.3043         estimate D2E/DX2                !
 ! D115  D(16,17,22,23)        -54.0616         estimate D2E/DX2                !
 ! D116  D(18,17,22,23)         70.1624         estimate D2E/DX2                !
 ! D117  D(56,17,22,23)       -174.0088         estimate D2E/DX2                !
 ! D118  D(17,18,19,13)         61.6096         estimate D2E/DX2                !
 ! D119  D(17,18,19,20)       -175.0228         estimate D2E/DX2                !
 ! D120  D(17,18,19,57)        -57.6074         estimate D2E/DX2                !
 ! D121  D(13,19,20,21)        -54.3911         estimate D2E/DX2                !
 ! D122  D(13,19,20,58)         66.0488         estimate D2E/DX2                !
 ! D123  D(13,19,20,59)       -175.5294         estimate D2E/DX2                !
 ! D124  D(18,19,20,21)       -175.2355         estimate D2E/DX2                !
 ! D125  D(18,19,20,58)        -54.7956         estimate D2E/DX2                !
 ! D126  D(18,19,20,59)         63.6262         estimate D2E/DX2                !
 ! D127  D(57,19,20,21)         66.6277         estimate D2E/DX2                !
 ! D128  D(57,19,20,58)       -172.9324         estimate D2E/DX2                !
 ! D129  D(57,19,20,59)        -54.5106         estimate D2E/DX2                !
 ! D130  D(19,20,21,60)       -154.9065         estimate D2E/DX2                !
 ! D131  D(58,20,21,60)         85.3913         estimate D2E/DX2                !
 ! D132  D(59,20,21,60)        -36.0458         estimate D2E/DX2                !
 ! D133  D(17,22,23,24)        121.3474         estimate D2E/DX2                !
 ! D134  D(17,22,23,28)       -119.0348         estimate D2E/DX2                !
 ! D135  D(17,22,23,61)          0.442          estimate D2E/DX2                !
 ! D136  D(22,23,24,25)        171.9545         estimate D2E/DX2                !
 ! D137  D(22,23,24,39)        -66.9381         estimate D2E/DX2                !
 ! D138  D(22,23,24,62)         52.2605         estimate D2E/DX2                !
 ! D139  D(28,23,24,25)         52.0062         estimate D2E/DX2                !
 ! D140  D(28,23,24,39)        173.1136         estimate D2E/DX2                !
 ! D141  D(28,23,24,62)        -67.6878         estimate D2E/DX2                !
 ! D142  D(61,23,24,25)        -66.1281         estimate D2E/DX2                !
 ! D143  D(61,23,24,39)         54.9792         estimate D2E/DX2                !
 ! D144  D(61,23,24,62)        174.1778         estimate D2E/DX2                !
 ! D145  D(22,23,28,27)       -178.5052         estimate D2E/DX2                !
 ! D146  D(22,23,28,29)         61.2944         estimate D2E/DX2                !
 ! D147  D(22,23,28,65)        -58.6678         estimate D2E/DX2                !
 ! D148  D(24,23,28,27)        -58.7652         estimate D2E/DX2                !
 ! D149  D(24,23,28,29)       -178.9655         estimate D2E/DX2                !
 ! D150  D(24,23,28,65)         61.0722         estimate D2E/DX2                !
 ! D151  D(61,23,28,27)         60.1966         estimate D2E/DX2                !
 ! D152  D(61,23,28,29)        -60.0037         estimate D2E/DX2                !
 ! D153  D(61,23,28,65)       -179.966          estimate D2E/DX2                !
 ! D154  D(23,24,25,26)        -50.6337         estimate D2E/DX2                !
 ! D155  D(23,24,25,38)       -173.6069         estimate D2E/DX2                !
 ! D156  D(23,24,25,63)         66.9611         estimate D2E/DX2                !
 ! D157  D(39,24,25,26)       -171.8814         estimate D2E/DX2                !
 ! D158  D(39,24,25,38)         65.1455         estimate D2E/DX2                !
 ! D159  D(39,24,25,63)        -54.2866         estimate D2E/DX2                !
 ! D160  D(62,24,25,26)         68.6335         estimate D2E/DX2                !
 ! D161  D(62,24,25,38)        -54.3396         estimate D2E/DX2                !
 ! D162  D(62,24,25,63)       -173.7717         estimate D2E/DX2                !
 ! D163  D(23,24,39,83)       -175.4623         estimate D2E/DX2                !
 ! D164  D(25,24,39,83)        -53.1135         estimate D2E/DX2                !
 ! D165  D(62,24,39,83)         66.0776         estimate D2E/DX2                !
 ! D166  D(24,25,26,27)         54.7381         estimate D2E/DX2                !
 ! D167  D(24,25,26,31)        172.1516         estimate D2E/DX2                !
 ! D168  D(24,25,26,64)        -65.0189         estimate D2E/DX2                !
 ! D169  D(38,25,26,27)        173.6475         estimate D2E/DX2                !
 ! D170  D(38,25,26,31)        -68.939          estimate D2E/DX2                !
 ! D171  D(38,25,26,64)         53.8905         estimate D2E/DX2                !
 ! D172  D(63,25,26,27)        -63.8266         estimate D2E/DX2                !
 ! D173  D(63,25,26,31)         53.5869         estimate D2E/DX2                !
 ! D174  D(63,25,26,64)        176.4164         estimate D2E/DX2                !
 ! D175  D(24,25,38,82)       -173.6218         estimate D2E/DX2                !
 ! D176  D(26,25,38,82)         64.5013         estimate D2E/DX2                !
 ! D177  D(63,25,38,82)        -55.7662         estimate D2E/DX2                !
 ! D178  D(25,26,27,28)        -64.3958         estimate D2E/DX2                !
 ! D179  D(31,26,27,28)        178.4794         estimate D2E/DX2                !
 ! D180  D(64,26,27,28)         56.732          estimate D2E/DX2                !
 ! D181  D(25,26,31,32)        170.5472         estimate D2E/DX2                !
 ! D182  D(27,26,31,32)        -71.7291         estimate D2E/DX2                !
 ! D183  D(64,26,31,32)         48.1765         estimate D2E/DX2                !
 ! D184  D(26,27,28,23)         66.7646         estimate D2E/DX2                !
 ! D185  D(26,27,28,29)       -168.8505         estimate D2E/DX2                !
 ! D186  D(26,27,28,65)        -52.3533         estimate D2E/DX2                !
 ! D187  D(23,28,29,30)         54.5051         estimate D2E/DX2                !
 ! D188  D(23,28,29,66)        173.5155         estimate D2E/DX2                !
 ! D189  D(23,28,29,67)        -68.2713         estimate D2E/DX2                !
 ! D190  D(27,28,29,30)        -66.0863         estimate D2E/DX2                !
 ! D191  D(27,28,29,66)         52.9241         estimate D2E/DX2                !
 ! D192  D(27,28,29,67)        171.1373         estimate D2E/DX2                !
 ! D193  D(65,28,29,30)        175.4837         estimate D2E/DX2                !
 ! D194  D(65,28,29,66)        -65.5059         estimate D2E/DX2                !
 ! D195  D(65,28,29,67)         52.7073         estimate D2E/DX2                !
 ! D196  D(28,29,30,68)        -79.9913         estimate D2E/DX2                !
 ! D197  D(66,29,30,68)        160.2029         estimate D2E/DX2                !
 ! D198  D(67,29,30,68)         42.5451         estimate D2E/DX2                !
 ! D199  D(26,31,32,33)        140.1659         estimate D2E/DX2                !
 ! D200  D(26,31,32,69)         18.5093         estimate D2E/DX2                !
 ! D201  D(26,31,32,70)        -99.3009         estimate D2E/DX2                !
 ! D202  D(31,32,33,34)        -54.8            estimate D2E/DX2                !
 ! D203  D(31,32,33,71)       -178.2335         estimate D2E/DX2                !
 ! D204  D(31,32,33,72)         66.9077         estimate D2E/DX2                !
 ! D205  D(69,32,33,34)         65.5897         estimate D2E/DX2                !
 ! D206  D(69,32,33,71)        -57.8438         estimate D2E/DX2                !
 ! D207  D(69,32,33,72)       -172.7026         estimate D2E/DX2                !
 ! D208  D(70,32,33,34)       -174.0047         estimate D2E/DX2                !
 ! D209  D(70,32,33,71)         62.5617         estimate D2E/DX2                !
 ! D210  D(70,32,33,72)        -52.2971         estimate D2E/DX2                !
 ! D211  D(32,33,34,35)        -63.5146         estimate D2E/DX2                !
 ! D212  D(32,33,34,73)        173.6693         estimate D2E/DX2                !
 ! D213  D(32,33,34,74)         59.5468         estimate D2E/DX2                !
 ! D214  D(71,33,34,35)         58.3718         estimate D2E/DX2                !
 ! D215  D(71,33,34,73)        -64.4444         estimate D2E/DX2                !
 ! D216  D(71,33,34,74)       -178.5669         estimate D2E/DX2                !
 ! D217  D(72,33,34,35)        174.618          estimate D2E/DX2                !
 ! D218  D(72,33,34,73)         51.8018         estimate D2E/DX2                !
 ! D219  D(72,33,34,74)        -62.3207         estimate D2E/DX2                !
 ! D220  D(33,34,35,36)        173.4013         estimate D2E/DX2                !
 ! D221  D(33,34,35,75)         50.8081         estimate D2E/DX2                !
 ! D222  D(33,34,35,76)        -66.6705         estimate D2E/DX2                !
 ! D223  D(73,34,35,36)        -64.0543         estimate D2E/DX2                !
 ! D224  D(73,34,35,75)        173.3525         estimate D2E/DX2                !
 ! D225  D(73,34,35,76)         55.874          estimate D2E/DX2                !
 ! D226  D(74,34,35,36)         52.5009         estimate D2E/DX2                !
 ! D227  D(74,34,35,75)        -70.0922         estimate D2E/DX2                !
 ! D228  D(74,34,35,76)        172.4292         estimate D2E/DX2                !
 ! D229  D(34,35,36,37)        -66.5835         estimate D2E/DX2                !
 ! D230  D(34,35,36,77)         53.4317         estimate D2E/DX2                !
 ! D231  D(34,35,36,78)        173.8854         estimate D2E/DX2                !
 ! D232  D(75,35,36,37)         56.9082         estimate D2E/DX2                !
 ! D233  D(75,35,36,77)        176.9235         estimate D2E/DX2                !
 ! D234  D(75,35,36,78)        -62.6228         estimate D2E/DX2                !
 ! D235  D(76,35,36,37)        172.1538         estimate D2E/DX2                !
 ! D236  D(76,35,36,77)        -67.831          estimate D2E/DX2                !
 ! D237  D(76,35,36,78)         52.6227         estimate D2E/DX2                !
 ! D238  D(35,36,37,79)         39.4468         estimate D2E/DX2                !
 ! D239  D(35,36,37,80)        -79.4963         estimate D2E/DX2                !
 ! D240  D(35,36,37,81)        158.104          estimate D2E/DX2                !
 ! D241  D(77,36,37,79)        -83.2842         estimate D2E/DX2                !
 ! D242  D(77,36,37,80)        157.7726         estimate D2E/DX2                !
 ! D243  D(77,36,37,81)         35.373          estimate D2E/DX2                !
 ! D244  D(78,36,37,79)        161.8905         estimate D2E/DX2                !
 ! D245  D(78,36,37,80)         42.9474         estimate D2E/DX2                !
 ! D246  D(78,36,37,81)        -79.4523         estimate D2E/DX2                !
 --------------------------------------------------------------------------------
 Trust Radius=3.00D-01 FncErr=1.00D-07 GrdErr=1.00D-06
 Number of steps in this run=    504 maximum allowed number of steps=    504.
 GradGradGradGradGradGradGradGradGradGradGradGradGradGradGradGradGradGrad

 Leave Link  103 at Fri May 20 14:13:21 2016, MaxMem= 10737418240 cpu:         0.4
 (Enter /share/apps//g09/l202.exe)
 Stoichiometry    C23H44NO16(1+)
 Framework group  C1[X(C23H44NO16)]
 Deg. of freedom   246
 Full point group                 C1      NOp   1
 Largest Abelian subgroup         C1      NOp   1
 Largest concise Abelian subgroup C1      NOp   1
                         Standard orientation:                         
 ---------------------------------------------------------------------
 Center     Atomic      Atomic             Coordinates (Angstroms)
 Number     Number       Type             X           Y           Z
 ---------------------------------------------------------------------
      1          8           0        2.384945    1.474927    0.489250
      2          6           0        3.121238    0.327675    0.054366
      3          6           0        3.598526    0.519810   -1.392631
      4          6           0        4.474471    1.767518   -1.485678
      5          6           0        3.765750    2.992303   -0.907628
      6          6           0        3.166303    2.677916    0.473319
      7          6           0        2.271149    3.797773    0.999944
      8          8           0        1.102495    4.013489    0.186881
      9          8           0        2.727968    3.428373   -1.804571
     10          8           0        4.796640    2.085917   -2.840325
     11          8           0        4.398087   -0.558767   -1.850425
     12          8           0        2.194093   -0.731109    0.126792
     13          6           0        2.660030   -1.982071    0.664234
     14          6           0        2.272332   -3.101285   -0.299021
     15          8           0        2.921342   -2.921972   -1.559873
     16          6           0        0.755542   -3.117469   -0.481949
     17          6           0        0.038843   -3.225501    0.880644
     18          8           0        0.526651   -2.217058    1.808630
     19          6           0        1.954948   -2.255622    2.000069
     20          6           0        2.281898   -1.230079    3.084592
     21          8           0        3.706603   -1.183631    3.198780
     22          8           0       -1.358001   -3.112361    0.814319
     23          6           0       -1.907564   -1.951659    0.162295
     24          6           0       -2.793134   -2.397309   -1.003723
     25          6           0       -3.558101   -1.216710   -1.607006
     26          6           0       -4.280681   -0.415575   -0.523103
     27          8           0       -3.322060   -0.017330    0.479594
     28          6           0       -2.760188   -1.146714    1.166228
     29          6           0       -1.989328   -0.619278    2.370499
     30          8           0       -0.838318    0.163641    2.015617
     31          8           0       -4.798855    0.729764   -1.112444
     32          6           0       -5.698643    1.491699   -0.262278
     33          6           0       -5.433474    2.979823   -0.462579
     34          6           0       -3.972653    3.400826   -0.240857
     35          6           0       -3.448611    3.195541    1.187825
     36          6           0       -1.954735    3.473575    1.330473
     37          7           0       -1.104277    2.483150    0.579608
     38          8           0       -4.448389   -1.776478   -2.568120
     39          8           0       -1.981552   -3.005680   -2.018401
     40          8           0        0.440632   -4.218086   -1.318738
     41          1           0        3.977479    0.139760    0.733926
     42          1           0        2.692772    0.652534   -2.014658
     43          1           0        5.400445    1.582709   -0.906595
     44          1           0        4.503292    3.807079   -0.781975
     45          1           0        4.018932    2.580090    1.177736
     46          1           0        2.857204    4.729281    1.070956
     47          1           0        1.915004    3.539652    2.007195
     48          1           0        1.433198    4.016497   -0.745401
     49          1           0        3.096721    3.329418   -2.706231
     50          1           0        5.066727    1.250095   -3.266398
     51          1           0        3.842960   -1.371696   -1.900646
     52          1           0        3.749846   -1.966941    0.812847
     53          1           0        2.596000   -4.063268    0.142743
     54          1           0        2.471798   -3.523598   -2.185146
     55          1           0        0.486912   -2.163490   -0.967068
     56          1           0        0.213525   -4.225976    1.314070
     57          1           0        2.255141   -3.257632    2.360952
     58          1           0        1.876302   -0.242623    2.799959
     59          1           0        1.801077   -1.547587    4.023451
     60          1           0        3.938024   -0.878907    4.090681
     61          1           0       -1.109060   -1.292833   -0.214603
     62          1           0       -3.520649   -3.138610   -0.621554
     63          1           0       -2.832281   -0.532236   -2.087949
     64          1           0       -5.073801   -1.025008   -0.038591
     65          1           0       -3.569324   -1.797754    1.555582
     66          1           0       -2.655716    0.030593    2.954724
     67          1           0       -1.682148   -1.464123    3.002855
     68          1           0       -0.130288   -0.488715    1.790966
     69          1           0       -5.539979    1.196946    0.785926
     70          1           0       -6.735380    1.241872   -0.539371
     71          1           0       -6.103903    3.534569    0.214495
     72          1           0       -5.727888    3.259589   -1.485741
     73          1           0       -3.863874    4.461422   -0.518699
     74          1           0       -3.365315    2.829457   -0.964270
     75          1           0       -3.654704    2.171041    1.530839
     76          1           0       -3.975680    3.873869    1.877246
     77          1           0       -1.692114    4.469987    0.947886
     78          1           0       -1.635036    3.423026    2.379614
     79          1           0       -1.537611    2.257147   -0.323776
     80          1           0       -0.995708    1.569645    1.106688
     81          1           0       -0.151409    2.919256    0.394019
     82          1           0       -4.878569   -1.043644   -3.043931
     83          1           0       -2.577095   -3.204328   -2.765689
     84          1           0       -0.457626   -4.038848   -1.678266
 ---------------------------------------------------------------------
 Rotational constants (GHZ):      0.1047164      0.0708679      0.0549689
 Leave Link  202 at Fri May 20 14:13:21 2016, MaxMem= 10737418240 cpu:         1.8
 (Enter /share/apps//g09/l301.exe)
 Standard basis: 6-311+G(d,p) (5D, 7F)
 Ernie: Thresh=  0.10000D-02 Tol=  0.10000D-05 Strict=F.
 There are  1184 symmetry adapted cartesian basis functions of A   symmetry.
 There are  1144 symmetry adapted basis functions of A   symmetry.
  1144 basis functions,  1792 primitive gaussians,  1184 cartesian basis functions
   158 alpha electrons      158 beta electrons
       nuclear repulsion energy      5822.8656822324 Hartrees.
 IExCor= 1009 DFT=T Ex+Corr=PBE1PBE ExCW=0 ScaHFX=  0.250000
 ScaDFX=  0.750000  0.750000  1.000000  1.000000 ScalE2=  1.000000  1.000000
 IRadAn=      0 IRanWt=     -1 IRanGd=            0 ICorTp=0 IEmpDi=131
 NAtoms=   84 NActive=   84 NUniq=   84 SFac= 1.00D+00 NAtFMM=   60 NAOKFM=T Big=T
 Integral buffers will be    131072 words long.
 Raffenetti 2 integral format.
 Two-electron integral symmetry is turned on.
 R6Disp:  Grimme-D3 Dispersion energy=       -0.0808268773 Hartrees.
 Nuclear repulsion after empirical dispersion term =     5822.7848553552 Hartrees.
 Leave Link  301 at Fri May 20 14:13:21 2016, MaxMem= 10737418240 cpu:         1.5
 (Enter /share/apps//g09/l302.exe)
 NPDir=0 NMtPBC=     1 NCelOv=     1 NCel=       1 NClECP=     1 NCelD=      1
         NCelK=      1 NCelE2=     1 NClLst=     1 CellRange=     0.0.
 One-electron integrals computed using PRISM.
 NBasis=  1144 RedAO= T EigKep=  1.62D-06  NBF=  1144
 NBsUse=  1144 1.00D-06 EigRej= -1.00D+00 NBFU=  1144
 Precomputing XC quadrature grid using
 IXCGrd= 4 IRadAn=           0 IRanWt=          -1 IRanGd=           0 AccXCQ= 0.00D+00.
 Generated NRdTot=       0 NPtTot=           0 NUsed=           0 NTot=          32
 NSgBfM=  1094  1099  1099  1099  1109 MxSgAt=    84 MxSgA2=    84.
 Leave Link  302 at Fri May 20 14:13:25 2016, MaxMem= 10737418240 cpu:        52.4
 (Enter /share/apps//g09/l303.exe)
 DipDrv:  MaxL=1.
 Leave Link  303 at Fri May 20 14:13:27 2016, MaxMem= 10737418240 cpu:        27.4
 (Enter /share/apps//g09/l401.exe)
 ExpMin= 4.38D-02 ExpMax= 8.59D+03 ExpMxC= 1.30D+03 IAcc=2 IRadAn=         4 AccDes= 0.00D+00
 Harris functional with IExCor= 1009 and IRadAn=       4 diagonalized for initial guess.
 HarFok:  IExCor= 1009 AccDes= 0.00D+00 IRadAn=         4 IDoV= 1 UseB2=F ITyADJ=14
 ICtDFT=  3500011 ScaDFX=  1.000000  1.000000  1.000000  1.000000
 FoFCou: FMM=F IPFlag=           0 FMFlag=      100000 FMFlg1=        2001
         NFxFlg=           0 DoJE=T BraDBF=F KetDBF=T FulRan=T
         wScrn=  0.000000 ICntrl=     500 IOpCl=  0 I1Cent=   200000004 NGrid=           0
         NMat0=    1 NMatS0=      1 NMatT0=    0 NMatD0=    1 NMtDS0=    0 NMtDT0=    0
 Petite list used in FoFCou.
 Harris En= -2159.71791186014    
 JPrj=0 DoOrth=F DoCkMO=F.
 Leave Link  401 at Fri May 20 14:13:33 2016, MaxMem= 10737418240 cpu:       114.2
 (Enter /share/apps//g09/l502.exe)
 Closed shell SCF:
 Using DIIS extrapolation, IDIIS=  1040.
 Integral symmetry usage will be decided dynamically.
 IVT=     4256630 IEndB=     4256630 NGot= 10737418240 MDV= 10734581291
 LenX= 10734581291 LenY= 10733178251
 Requested convergence on RMS density matrix=1.00D-08 within 128 cycles.
 Requested convergence on MAX density matrix=1.00D-06.
 Requested convergence on             energy=1.00D-06.
 No special actions if energy rises.
 Fock matrices will be formed incrementally for  20 cycles.

 Cycle   1  Pass 1  IDiag  1:
 FoFJK:  IHMeth= 1 ICntrl=       0 DoSepK=F KAlg= 0 I1Cent=   0 FoldK=F
 IRaf= 770000000 NMat=   1 IRICut=       1 DoRegI=T DoRafI=F ISym2E= 0.
 FoFCou: FMM=T IPFlag=           0 FMFlag=      100000 FMFlg1=        2001
         NFxFlg=           0 DoJE=F BraDBF=F KetDBF=F FulRan=T
         wScrn=  0.000000 ICntrl=       0 IOpCl=  0 I1Cent=           0 NGrid=           0
         NMat0=    1 NMatS0=      1 NMatT0=    0 NMatD0=    1 NMtDS0=    0 NMtDT0=    0
 Symmetry not used in FoFCou.
 FMM levels:  10  Number of levels for PrismC:   9
 E= -2158.71154599682    
 DIIS: error= 1.53D-02 at cycle   1 NSaved=   1.
 NSaved= 1 IEnMin= 1 EnMin= -2158.71154599682     IErMin= 1 ErrMin= 1.53D-02
 ErrMax= 1.53D-02  0.00D+00 EMaxC= 1.00D-01 BMatC= 1.01D+00 BMatP= 1.01D+00
 IDIUse=3 WtCom= 8.47D-01 WtEn= 1.53D-01
 Coeff-Com:  0.100D+01
 Coeff-En:   0.100D+01
 Coeff:      0.100D+01
 Gap=     0.274 Goal=   None    Shift=    0.000
 GapD=    0.274 DampG=1.000 DampE=0.500 DampFc=0.5000 IDamp=-1.
 Damping current iteration by 5.00D-01
 RMSDP=9.74D-03 MaxDP=2.55D+00              OVMax= 1.38D-01

 Cycle   2  Pass 1  IDiag  1:
 RMSU=  4.86D-03    CP:  9.92D-01
 E= -2158.99203974139     Delta-E=       -0.280493744570 Rises=F Damp=T
 DIIS: error= 4.30D-03 at cycle   2 NSaved=   2.
 NSaved= 2 IEnMin= 2 EnMin= -2158.99203974139     IErMin= 2 ErrMin= 4.30D-03
 ErrMax= 4.30D-03  0.00D+00 EMaxC= 1.00D-01 BMatC= 8.01D-02 BMatP= 1.01D+00
 IDIUse=3 WtCom= 9.57D-01 WtEn= 4.30D-02
 Coeff-Com:  0.601D-01 0.940D+00
 Coeff-En:   0.158D+00 0.842D+00
 Coeff:      0.643D-01 0.936D+00
 Gap=     0.282 Goal=   None    Shift=    0.000
 RMSDP=4.22D-03 MaxDP=1.23D+00 DE=-2.80D-01 OVMax= 8.15D-02

 Cycle   3  Pass 1  IDiag  1:
 RMSU=  2.65D-03    CP:  9.05D-01  9.20D-01
 E= -2159.35987508183     Delta-E=       -0.367835340443 Rises=F Damp=F
 DIIS: error= 4.09D-03 at cycle   3 NSaved=   3.
 NSaved= 3 IEnMin= 3 EnMin= -2159.35987508183     IErMin= 3 ErrMin= 4.09D-03
 ErrMax= 4.09D-03  0.00D+00 EMaxC= 1.00D-01 BMatC= 4.32D-02 BMatP= 8.01D-02
 IDIUse=3 WtCom= 9.59D-01 WtEn= 4.09D-02
 Coeff-Com: -0.663D-01 0.404D+00 0.662D+00
 Coeff-En:   0.000D+00 0.000D+00 0.100D+01
 Coeff:     -0.636D-01 0.388D+00 0.676D+00
 Gap=     0.268 Goal=   None    Shift=    0.000
 RMSDP=1.42D-03 MaxDP=3.60D-01 DE=-3.68D-01 OVMax= 1.62D-02

 Cycle   4  Pass 1  IDiag  1:
 RMSU=  1.09D-03    CP:  9.22D-01  1.04D+00  8.68D-01
 E= -2159.38625941754     Delta-E=       -0.026384335710 Rises=F Damp=F
 DIIS: error= 1.08D-03 at cycle   4 NSaved=   4.
 NSaved= 4 IEnMin= 4 EnMin= -2159.38625941754     IErMin= 4 ErrMin= 1.08D-03
 ErrMax= 1.08D-03  0.00D+00 EMaxC= 1.00D-01 BMatC= 6.37D-03 BMatP= 4.32D-02
 IDIUse=3 WtCom= 9.89D-01 WtEn= 1.08D-02
 Coeff-Com: -0.357D-01 0.122D+00 0.351D+00 0.563D+00
 Coeff-En:   0.000D+00 0.000D+00 0.100D+00 0.900D+00
 Coeff:     -0.353D-01 0.121D+00 0.348D+00 0.566D+00
 Gap=     0.261 Goal=   None    Shift=    0.000
 RMSDP=1.02D-03 MaxDP=3.40D-01 DE=-2.64D-02 OVMax= 6.07D-03

 Cycle   5  Pass 1  IDiag  1:
 RMSU=  2.95D-04    CP:  8.99D-01  9.96D-01  8.68D-01  5.86D-01
 E= -2159.39166553299     Delta-E=       -0.005406115445 Rises=F Damp=F
 DIIS: error= 3.59D-04 at cycle   5 NSaved=   5.
 NSaved= 5 IEnMin= 5 EnMin= -2159.39166553299     IErMin= 5 ErrMin= 3.59D-04
 ErrMax= 3.59D-04  0.00D+00 EMaxC= 1.00D-01 BMatC= 2.49D-04 BMatP= 6.37D-03
 IDIUse=3 WtCom= 9.96D-01 WtEn= 3.59D-03
 Coeff-Com: -0.112D-01 0.263D-01 0.106D+00 0.243D+00 0.636D+00
 Coeff-En:   0.000D+00 0.000D+00 0.000D+00 0.000D+00 0.100D+01
 Coeff:     -0.112D-01 0.262D-01 0.106D+00 0.242D+00 0.637D+00
 Gap=     0.260 Goal=   None    Shift=    0.000
 RMSDP=1.33D-04 MaxDP=3.80D-02 DE=-5.41D-03 OVMax= 1.53D-03

 Cycle   6  Pass 1  IDiag  1:
 RMSU=  7.12D-05    CP:  9.01D-01  1.00D+00  8.84D-01  6.01D-01  7.74D-01
 E= -2159.39183995270     Delta-E=       -0.000174419716 Rises=F Damp=F
 DIIS: error= 1.40D-04 at cycle   6 NSaved=   6.
 NSaved= 6 IEnMin= 6 EnMin= -2159.39183995270     IErMin= 6 ErrMin= 1.40D-04
 ErrMax= 1.40D-04  0.00D+00 EMaxC= 1.00D-01 BMatC= 3.14D-05 BMatP= 2.49D-04
 IDIUse=3 WtCom= 9.99D-01 WtEn= 1.40D-03
 Coeff-Com: -0.408D-02 0.736D-02 0.381D-01 0.101D+00 0.348D+00 0.510D+00
 Coeff-En:   0.000D+00 0.000D+00 0.000D+00 0.000D+00 0.000D+00 0.100D+01
 Coeff:     -0.408D-02 0.735D-02 0.380D-01 0.101D+00 0.347D+00 0.510D+00
 Gap=     0.261 Goal=   None    Shift=    0.000
 RMSDP=3.20D-05 MaxDP=9.33D-03 DE=-1.74D-04 OVMax= 5.90D-04

 Cycle   7  Pass 1  IDiag  1:
 RMSU=  1.49D-05    CP:  9.01D-01  1.00D+00  8.84D-01  6.12D-01  7.82D-01
                    CP:  7.15D-01
 E= -2159.39186194455     Delta-E=       -0.000021991847 Rises=F Damp=F
 DIIS: error= 3.41D-05 at cycle   7 NSaved=   7.
 NSaved= 7 IEnMin= 7 EnMin= -2159.39186194455     IErMin= 7 ErrMin= 3.41D-05
 ErrMax= 3.41D-05  0.00D+00 EMaxC= 1.00D-01 BMatC= 1.88D-06 BMatP= 3.14D-05
 IDIUse=1 WtCom= 1.00D+00 WtEn= 0.00D+00
 Coeff-Com: -0.106D-02 0.148D-02 0.104D-01 0.314D-01 0.123D+00 0.256D+00
 Coeff-Com:  0.579D+00
 Coeff:     -0.106D-02 0.148D-02 0.104D-01 0.314D-01 0.123D+00 0.256D+00
 Coeff:      0.579D+00
 Gap=     0.261 Goal=   None    Shift=    0.000
 RMSDP=7.88D-06 MaxDP=1.74D-03 DE=-2.20D-05 OVMax= 1.51D-04

 Cycle   8  Pass 1  IDiag  1:
 RMSU=  6.44D-06    CP:  9.01D-01  1.00D+00  8.84D-01  6.14D-01  7.85D-01
                    CP:  6.98D-01  8.08D-01
 E= -2159.39186319467     Delta-E=       -0.000001250115 Rises=F Damp=F
 DIIS: error= 6.28D-06 at cycle   8 NSaved=   8.
 NSaved= 8 IEnMin= 8 EnMin= -2159.39186319467     IErMin= 8 ErrMin= 6.28D-06
 ErrMax= 6.28D-06  0.00D+00 EMaxC= 1.00D-01 BMatC= 1.42D-07 BMatP= 1.88D-06
 IDIUse=1 WtCom= 1.00D+00 WtEn= 0.00D+00
 Coeff-Com:  0.786D-06-0.198D-03 0.291D-03 0.245D-02 0.133D-01 0.505D-01
 Coeff-Com:  0.255D+00 0.679D+00
 Coeff:      0.786D-06-0.198D-03 0.291D-03 0.245D-02 0.133D-01 0.505D-01
 Coeff:      0.255D+00 0.679D+00
 Gap=     0.261 Goal=   None    Shift=    0.000
 RMSDP=3.46D-06 MaxDP=1.16D-03 DE=-1.25D-06 OVMax= 4.11D-05

 Cycle   9  Pass 1  IDiag  1:
 RMSU=  2.05D-06    CP:  9.01D-01  1.00D+00  8.84D-01  6.13D-01  7.87D-01
                    CP:  7.02D-01  8.49D-01  9.13D-01
 E= -2159.39186329942     Delta-E=       -0.000000104754 Rises=F Damp=F
 DIIS: error= 1.79D-06 at cycle   9 NSaved=   9.
 NSaved= 9 IEnMin= 9 EnMin= -2159.39186329942     IErMin= 9 ErrMin= 1.79D-06
 ErrMax= 1.79D-06  0.00D+00 EMaxC= 1.00D-01 BMatC= 1.40D-08 BMatP= 1.42D-07
 IDIUse=1 WtCom= 1.00D+00 WtEn= 0.00D+00
 Coeff-Com:  0.686D-04-0.188D-03-0.564D-03-0.902D-03-0.206D-02 0.579D-02
 Coeff-Com:  0.805D-01 0.324D+00 0.593D+00
 Coeff:      0.686D-04-0.188D-03-0.564D-03-0.902D-03-0.206D-02 0.579D-02
 Coeff:      0.805D-01 0.324D+00 0.593D+00
 Gap=     0.261 Goal=   None    Shift=    0.000
 RMSDP=1.11D-06 MaxDP=2.42D-04 DE=-1.05D-07 OVMax= 1.21D-05

 Cycle  10  Pass 1  IDiag  1:
 RMSU=  6.88D-07    CP:  9.01D-01  1.00D+00  8.84D-01  6.13D-01  7.87D-01
                    CP:  7.10D-01  8.53D-01  8.96D-01  7.43D-01
 E= -2159.39186331006     Delta-E=       -0.000000010639 Rises=F Damp=F
 DIIS: error= 6.93D-07 at cycle  10 NSaved=  10.
 NSaved=10 IEnMin=10 EnMin= -2159.39186331006     IErMin=10 ErrMin= 6.93D-07
 ErrMax= 6.93D-07  0.00D+00 EMaxC= 1.00D-01 BMatC= 1.71D-09 BMatP= 1.40D-08
 IDIUse=1 WtCom= 1.00D+00 WtEn= 0.00D+00
 Coeff-Com:  0.315D-04-0.737D-04-0.308D-03-0.640D-03-0.214D-02-0.129D-02
 Coeff-Com:  0.203D-01 0.109D+00 0.316D+00 0.559D+00
 Coeff:      0.315D-04-0.737D-04-0.308D-03-0.640D-03-0.214D-02-0.129D-02
 Coeff:      0.203D-01 0.109D+00 0.316D+00 0.559D+00
 Gap=     0.261 Goal=   None    Shift=    0.000
 RMSDP=3.93D-07 MaxDP=6.57D-05 DE=-1.06D-08 OVMax= 3.54D-06

 Cycle  11  Pass 1  IDiag  1:
 RMSU=  1.49D-07    CP:  9.01D-01  1.00D+00  8.84D-01  6.14D-01  7.87D-01
                    CP:  7.08D-01  8.58D-01  9.12D-01  7.69D-01  6.40D-01
 E= -2159.39186331136     Delta-E=       -0.000000001303 Rises=F Damp=F
 DIIS: error= 1.86D-07 at cycle  11 NSaved=  11.
 NSaved=11 IEnMin=11 EnMin= -2159.39186331136     IErMin=11 ErrMin= 1.86D-07
 ErrMax= 1.86D-07  0.00D+00 EMaxC= 1.00D-01 BMatC= 1.36D-10 BMatP= 1.71D-09
 IDIUse=1 WtCom= 1.00D+00 WtEn= 0.00D+00
 Coeff-Com:  0.873D-05-0.188D-04-0.104D-03-0.231D-03-0.841D-03-0.110D-02
 Coeff-Com:  0.308D-02 0.255D-01 0.107D+00 0.281D+00 0.586D+00
 Coeff:      0.873D-05-0.188D-04-0.104D-03-0.231D-03-0.841D-03-0.110D-02
 Coeff:      0.308D-02 0.255D-01 0.107D+00 0.281D+00 0.586D+00
 Gap=     0.261 Goal=   None    Shift=    0.000
 RMSDP=6.22D-08 MaxDP=2.46D-05 DE=-1.30D-09 OVMax= 1.10D-06

 Cycle  12  Pass 1  IDiag  1:
 RMSU=  4.09D-08    CP:  9.01D-01  1.00D+00  8.84D-01  6.14D-01  7.87D-01
                    CP:  7.08D-01  8.59D-01  9.13D-01  7.80D-01  6.56D-01
                    CP:  8.15D-01
 E= -2159.39186331136     Delta-E=        0.000000000004 Rises=F Damp=F
 DIIS: error= 4.41D-08 at cycle  12 NSaved=  12.
 NSaved=12 IEnMin=11 EnMin= -2159.39186331136     IErMin=12 ErrMin= 4.41D-08
 ErrMax= 4.41D-08  0.00D+00 EMaxC= 1.00D-01 BMatC= 7.25D-12 BMatP= 1.36D-10
 IDIUse=1 WtCom= 1.00D+00 WtEn= 0.00D+00
 Coeff-Com:  0.244D-06-0.218D-06-0.133D-04-0.315D-04-0.132D-03-0.308D-03
 Coeff-Com: -0.754D-03-0.639D-03 0.111D-01 0.588D-01 0.232D+00 0.700D+00
 Coeff:      0.244D-06-0.218D-06-0.133D-04-0.315D-04-0.132D-03-0.308D-03
 Coeff:     -0.754D-03-0.639D-03 0.111D-01 0.588D-01 0.232D+00 0.700D+00
 Gap=     0.261 Goal=   None    Shift=    0.000
 RMSDP=2.14D-08 MaxDP=4.47D-06 DE= 3.64D-12 OVMax= 2.58D-07

 Cycle  13  Pass 1  IDiag  1:
 RMSU=  1.49D-08    CP:  9.01D-01  1.00D+00  8.84D-01  6.14D-01  7.87D-01
                    CP:  7.08D-01  8.58D-01  9.14D-01  7.81D-01  6.65D-01
                    CP:  7.88D-01  8.60D-01
 E= -2159.39186331150     Delta-E=       -0.000000000143 Rises=F Damp=F
 DIIS: error= 2.02D-08 at cycle  13 NSaved=  13.
 NSaved=13 IEnMin=13 EnMin= -2159.39186331150     IErMin=13 ErrMin= 2.02D-08
 ErrMax= 2.02D-08  0.00D+00 EMaxC= 1.00D-01 BMatC= 9.19D-13 BMatP= 7.25D-12
 IDIUse=1 WtCom= 1.00D+00 WtEn= 0.00D+00
 Coeff-Com: -0.405D-06 0.102D-05-0.279D-06-0.147D-05-0.128D-04-0.805D-04
 Coeff-Com: -0.567D-03-0.190D-02-0.142D-02 0.110D-01 0.747D-01 0.348D+00
 Coeff-Com:  0.570D+00
 Coeff:     -0.405D-06 0.102D-05-0.279D-06-0.147D-05-0.128D-04-0.805D-04
 Coeff:     -0.567D-03-0.190D-02-0.142D-02 0.110D-01 0.747D-01 0.348D+00
 Coeff:      0.570D+00
 Gap=     0.261 Goal=   None    Shift=    0.000
 RMSDP=7.31D-09 MaxDP=1.85D-06 DE=-1.43D-10 OVMax= 9.97D-08

[...]
 00003547,-0.00006837,0.00035356,0.00013158,-0.00013060,-0.00010861,-0.
 00016770,0.00000854,0.00000244,-0.00001602,0.00000972,-0.00000585,0.00
 001449,-0.00000629,-0.00000724,0.00000154,0.00003909,0.00001252,0.0000
 1957,-0.00006083,0.00001154,-0.00002829,-0.00037603,0.00001087,0.00175
 768,-0.12894783,0.20795460,0.00852689,-0.00109568,-0.00001130,-0.00073
 713,-0.00000292,-0.00000575,0.00000162,0.00000606,-0.00000111,0.000016
 79,0.00000578,-0.00000557,-0.00000261,0.00000213,-0.00000281,-0.000004
 85,0.00000152,-0.00000246,-0.00000141,-0.00000155,0.00000292,-0.000001
 52,-0.00000280,-0.00000216,0.00000115,0.00002250,0.00002344,0.00001598
 ,-0.00000494,0.00001429,0.00002177,-0.00001819,0.00001593,0.00001245,-
 0.00001969,0.00005689,0.00000779,-0.00000191,0.00000662,0.00000413,-0.
 00008590,0.00000306,0.00003097,-0.00003760,0.00016306,-0.00004797,0.00
 022811,0.00002923,-0.00029268,0.00004481,0.00002045,0.00000138,0.00000
 293,-0.00000191,0.00000137,0.00000236,0.00000014,0.00000016,-0.0000005
 1,-0.00000436,0.00000013,-0.00000103,0.00000540,-0.00000090,0.00007464
 ,0.00014759,-0.00014778,-0.00061568,-0.00120871,0.00024383,-0.00024652
 ,0.00039790,0.00053472,-0.00010321,-0.00009678,-0.00001122,0.00005380,
 0.00004736,0.00002733,0.00004674,-0.00018722,-0.00006527,-0.00001363,0
 .00003032,0.00001235,-0.00000823,0.00002088,-0.00000133,0.00003401,0.0
 0003086,0.00001475,-0.00000180,0.00000173,-0.00000064,-0.00000410,0.00
 000604,0.00001612,-0.00000956,0.00000237,-0.00000866,-0.00000676,0.000
 01129,0.00001490,0.00001080,-0.00000485,-0.00002291,0.00000595,-0.0000
 1472,-0.00000134,-0.00000307,0.00000379,0.00000186,-0.00000193,-0.0000
 0376,-0.00000131,-0.00000881,0.00000588,-0.00000071,0.00005097,-0.0000
 0702,-0.00000597,0.00001897,-0.00004469,0.00006364,0.00005435,0.000008
 79,-0.00001511,0.00037170,0.00134764,0.00063199,0.12199282,-0.00004214
 ,0.00000715,0.00012818,0.00012910,0.00000974,-0.00020777,-0.00000837,0
 .00001980,0.00001551,0.00004322,0.00003693,-0.00002936,-0.00001529,0.0
 0002377,-0.00001530,0.00005219,-0.00000454,-0.00007571,0.00000219,-0.0
 0000434,-0.00000362,-0.00003579,-0.00001138,0.00004572,-0.00000312,-0.
 00004989,0.00002791,-0.00004675,-0.00007165,0.00002900,-0.00005137,-0.
 00005293,0.00005625,-0.00015009,0.00000606,0.00021732,-0.00003887,-0.0
 0001721,-0.00011692,0.00026949,0.00018093,-0.00007867,-0.00024838,-0.0
 0013447,0.00005202,-0.00019643,-0.00012206,-0.00003024,0.00043559,-0.0
 0041047,-0.00005557,-0.00025879,0.00032079,0.00016897,0.00019588,-0.00
 007604,0.00003242,0.00003912,-0.00005659,-0.00003296,-0.00008614,0.000
 06982,0.00003078,-0.00035640,0.00100062,-0.00009796,-0.00417683,-0.001
 66803,-0.00098107,0.00850352,-0.02598461,-0.00493358,0.00075571,0.0030
 5103,0.00006284,0.00018599,-0.00111792,-0.00032515,-0.00000753,-0.0000
 9478,0.00009029,0.00086910,-0.00074234,-0.00021694,-0.00032961,-0.0001
 3002,-0.00015344,0.00001924,0.00012717,0.00014565,0.00053956,0.0001506
 8,0.00073312,-0.00023186,-0.00008504,-0.00000197,0.00005787,0.00004612
 ,0.00000660,0.00000184,-0.00001014,0.00000156,0.00000219,0.00000389,-0
 .00001333,-0.00002129,-0.00001884,-0.00003237,-0.00002116,-0.00001375,
 0.00008367,-0.00027731,-0.00143512,-0.00015079,0.16356319,-0.42583541,
 -0.04833649,-0.00106148,0.00054624,-0.00014086,-0.00001361,0.00000317,
 0.00001183,0.00000736,0.00000853,-0.00000354,0.00000255,-0.00000510,0.
 00000367,-0.00000050,-0.00000400,0.00000817,-0.00000857,0.00000240,0.0
 0000266,-0.00000307,0.00000195,0.00000820,-0.00000093,-0.00000644,-0.0
 0000553,0.00001387,0.00002760,-0.00001514,-0.00000162,0.00002730,-0.00
 001074,0.00001416,0.00002860,-0.00000837,0.00006802,0.00004316,-0.0000
 7974,-0.00001273,0.00000927,0.00003297,-0.00006502,0.00001048,-0.00000
 134,0.00012227,0.00010342,0.00000683,0.00019692,-0.00007686,-0.0001437
 9,-0.00000779,0.00003330,-0.00001288,-0.00001853,-0.00000208,-0.000007
 24,-0.00000031,0.00000444,-0.00000413,-0.00000180,0.00000060,0.0000007
 3,0.00001104,-0.00001521,-0.00000304,-0.00010956,0.00028711,0.00007573
 ,0.00097078,0.00064328,0.00071618,-0.00000289,-0.00004941,-0.00017440,
 -0.00002078,0.00001972,0.00003163,-0.00003113,-0.00004069,0.00004563,0
 .00005575,-0.00006718,0.00001261,-0.00001064,-0.00001763,-0.00000179,-
 0.00000419,-0.00006804,-0.00008339,0.00000833,-0.00000282,-0.00000239,
 0.00003728,0.00001375,0.00000803,-0.00000366,0.00000234,0.00003290,-0.
 00000373,-0.00001301,0.00001054,-0.00000232,0.00000725,0.00001853,0.00
 000994,0.00001302,-0.00001975,-0.00001019,-0.00001981,-0.00000566,0.00
 000336,0.00000033,0.00000839,0.00000122,0.00000040,0.00000865,0.000004
 07,0.00000124,-0.00000255,0.00000982,0.00001155,-0.00005436,0.00001011
 ,0.00001914,-0.00012174,0.00006365,0.00000362,-0.00004777,0.00010996,0
 .00016317,0.00017078,-0.17166316,0.45238945,-0.00003013,0.00001505,-0.
 00005477,-0.00001767,-0.00001310,0.00009963,0.00006627,-0.00003290,0.0
 0005609,0.00000606,0.00000537,-0.00000408,0.00003789,-0.00004443,0.000
 01427,-0.00000233,-0.00000398,0.00000596,0.00005198,-0.00005753,0.0000
 1558,-0.00008846,0.00005849,0.00001758,-0.00005728,0.00004952,-0.00001
 026,-0.00002862,0.00000967,-0.00000952,-0.00003007,0.00001198,-0.00008
 283,0.00002115,0.00003222,-0.00013448,0.00002239,-0.00001524,0.0001091
 1,0.00000273,-0.00010849,0.00000357,-0.00002639,0.00001733,-0.00007486
 ,0.00042479,-0.00022699,0.00003537,0.00022853,-0.00016790,0.00002689,-
 0.00003240,-0.00005521,-0.00008140,-0.00000208,0.00000293,0.00000725,0
 .00000356,-0.00001247,0.00002357,-0.00000547,0.00001255,-0.00002467,0.
 00009746,0.00070304,0.00028010,-0.00352815,-0.00191091,-0.00256487,0.0
 0650774,-0.01735946,-0.00261214,0.00018257,-0.00429018,-0.00101049,-0.
 00000174,-0.00142493,-0.00024590,-0.00027493,0.00126501,-0.00008538,0.
 00088226,-0.00143017,0.00097994,-0.00045975,-0.00004130,-0.00016431,0.
 00003422,0.00007366,-0.00012714,0.00049448,0.00063652,0.00051370,-0.00
 035757,-0.00021126,-0.00019590,0.00006306,0.00003429,0.00000535,-0.000
 02297,-0.00004420,-0.00001779,0.00000373,-0.00000856,0.00001130,0.0000
 1626,0.00000157,-0.00001430,-0.00005391,0.00003552,-0.00002475,0.00169
 303,0.00153019,0.00077811,-0.00251312,-0.03353842,-0.01607783,-0.00167
 047,0.00012526,-0.00140271,-0.00000429,0.00000770,-0.00000592,-0.00000
 925,0.00001079,-0.00001165,-0.00000815,0.00000510,0.00000169,-0.000006
 26,0.00000862,0.00000030,-0.00000600,0.00000516,-0.00000429,-0.0000118
 1,0.00000560,0.00000106,0.00000228,0.00000267,-0.00000139,0.00002744,-
 0.00001152,-0.00000658,0.00002812,-0.00001149,-0.00000529,0.00001857,-
 0.00000350,0.00000729,-0.00000970,-0.00001425,0.00006391,-0.00000348,-
 0.00000060,-0.00001335,-0.00000434,0.00001414,0.00000478,0.00000021,0.
 00003467,0.00007191,-0.00001395,-0.00004093,-0.00001814,-0.00003308,0.
 00003471,-0.00001338,-0.00000046,0.00000703,-0.00000907,-0.00000346,0.
 00000139,-0.00000631,0.00000134,0.00000065,-0.00000063,0.00000221,-0.0
 0000682,0.00001099,-0.00007357,0.00025903,0.00009567,-0.00011482,0.000
 82004,0.00064947,-0.00009937,0.00008878,-0.00070470,0.00019116,0.00016
 977,0.00010639,-0.00001022,0.00000909,-0.00006292,0.00006147,-0.000155
 10,-0.00004338,-0.00002735,0.00004898,0.00001446,0.00003147,0.00001189
 ,0.00004833,0.00004677,0.00005180,0.00002069,0.00004656,0.00000267,0.0
 0001856,0.00000159,0.00001581,0.00004604,-0.00002473,0.00000165,-0.000
 01246,-0.00000563,0.00001791,0.00002336,0.00003900,-0.00000013,-0.0000
 2651,0.00000076,-0.00002974,-0.00001053,0.00000103,0.00001359,0.000008
 85,-0.00000083,-0.00000833,-0.00000135,-0.00000668,0.00001392,0.000003
 77,0.00003405,-0.00007191,-0.00005671,0.00002409,-0.00009944,0.0001299
 9,0.00009035,-0.00001736,-0.00004042,0.00005355,0.00070875,-0.00018868
 ,-0.00272733,0.05256144,0.01961285,-0.00011147,-0.00012788,-0.00053391
 ,-0.00019753,0.00008540,0.00085941,0.00014675,0.00003465,0.00016577,-0
 .00007342,-0.00002448,0.00009214,0.00009843,-0.00005596,0.00005582,-0.
 00013005,0.00005326,0.00018259,0.00015456,-0.00008991,0.00006376,-0.00
 026403,0.00006519,-0.00001806,-0.00011452,0.00004610,-0.00013834,0.000
 06623,0.00005507,-0.00013793,0.00009459,-0.00006818,-0.00049891,0.0003
 9956,-0.00030280,-0.00099898,-0.00000483,0.00026878,0.00032923,-0.0006
 3600,0.00046095,0.00078952,0.00102258,0.00009042,-0.00021484,-0.005671
 87,0.00513964,0.00362028,0.00598228,-0.00105012,-0.00068866,-0.0015939
 7,-0.00171389,-0.00106503,-0.00011988,0.00038217,-0.00003132,-0.000082
 99,0.00007331,0.00012934,0.00002905,-0.00012550,-0.00007045,-0.0025579
 3,0.00208136,-0.00040099,0.00105867,-0.00112712,-0.00039876,-0.0047048
 2,-0.00600309,-0.00224956,0.00118864,0.00142210,0.00018887,-0.00008218
 ,-0.00130668,-0.00050072,-0.00024326,0.00056754,0.00015455,-0.00046756
 ,0.00026633,0.00007982,0.00069932,-0.00015683,-0.00009145,-0.00076428,
 0.00019108,-0.00000922,0.00063639,0.00042746,0.00092158,-0.00038804,-0
 .00022842,-0.00019550,0.00007958,0.00004006,-0.00001027,-0.00001187,-0
 .00002746,0.00001131,0.00001065,-0.00000633,-0.00002294,0.00006505,0.0
 0001267,0.00001981,-0.00019338,0.00000133,0.00004099,0.00041783,-0.000
 04719,0.00048360,0.00086691,0.00111193,0.00364056,-0.32887994,0.209949
 69,-0.08079040,0.00004388,-0.00001333,-0.00006202,-0.00001882,-0.00000
 147,0.00002439,-0.00000406,0.00000309,-0.00000693,-0.00000381,0.000009
 87,-0.00003421,0.00001113,-0.00000138,-0.00001345,-0.00002687,0.000013
 88,-0.00001891,-0.00000401,-0.00000160,0.00000719,0.00008902,0.0000344
 0,0.00005176,0.00002625,-0.00001630,0.00006410,-0.00005474,-0.00002512
 ,0.00006789,-0.00032602,0.00001942,0.00050032,0.00006875,-0.00002387,-
 0.00009739,0.00000304,-0.00003448,0.00010262,-0.00094102,0.00028146,-0
 .00027609,0.00066287,-0.00129882,-0.00301211,-0.00011403,0.00016843,-0
 .00002503,-0.00000859,0.00005569,-0.00003409,0.00003079,0.00001381,-0.
 00004222,0.00000686,-0.00007133,-0.00000865,-0.00002289,0.00003253,0.0
 0001120,0.00012934,0.00006854,0.00028513,0.00040273,0.00046153,0.00004
 948,-0.00009214,-0.00000691,-0.00001024,-0.00000495,0.00005289,0.00006
 575,-0.00009475,-0.00007334,-0.00002666,-0.00008284,0.00009670,0.00005
 099,0.00002228,0.00002609,0.00001490,0.00054427,-0.00006416,0.00048680
 ,0.00003532,0.00002768,-0.00000089,0.00004726,0.00001895,0.00002368,-0
 .00000665,0.00001312,0.00005596,-0.00002574,-0.00000419,0.00000173,-0.
 00000789,0.00001721,0.00003905,0.00003308,-0.00000143,-0.00005032,-0.0
 0001166,-0.00004308,-0.00001753,-0.00000640,0.00001218,0.00001507,0.00
 000078,-0.00001445,0.00000820,-0.00000200,0.00001622,-0.00000863,0.000
 10924,-0.00004149,-0.00008469,0.00010196,-0.00006169,-0.00002432,0.000
 28819,-0.00000734,-0.00008858,-0.00007207,0.00019632,-0.00006328,0.000
 64812,0.00227632,0.00086610,0.33290361,0.00000336,0.00002056,0.0003194
 3,0.00020344,-0.00000463,-0.00054122,-0.00012126,0.00004828,-0.0000742
 8,0.00007195,0.00004193,-0.00004650,-0.00006037,0.00006146,-0.00003546
 ,0.00009389,-0.00001410,-0.00013819,-0.00006740,0.00005105,-0.00003052
 ,0.00008305,-0.00005817,0.00003920,0.00005105,-0.00008445,0.00006692,-
 0.00005933,-0.00010368,0.00007257,-0.00008840,-0.00007321,0.00031898,-
 0.00030498,0.00001873,0.00064241,0.00059932,0.00020542,-0.00012405,-0.
 00097060,-0.00209586,-0.00251289,-0.00105930,0.00065734,0.00123823,0.0
 2409402,-0.01993013,0.00079771,0.00155412,-0.00373437,-0.00128714,-0.0
 0043721,0.00149374,0.00090474,0.00049352,-0.00016875,0.00009365,0.0000
 4616,-0.00013290,-0.00014320,-0.00015538,0.00015280,0.00010517,0.00124
 707,0.00119654,0.00237167,-0.00164092,0.00109349,-0.00249922,0.0011880
 5,0.00499099,-0.00038176,-0.00100104,-0.00099763,-0.00035341,-0.000162
 54,0.00113964,0.00011839,0.00049589,-0.00058142,0.00032084,0.00002184,
 -0.00018847,-0.00023177,-0.00023673,0.00005162,-0.00003900,0.00033222,
 -0.00007784,0.00025409,-0.00026863,-0.00034975,-0.00033926,0.00015058,
 0.00012258,0.00004861,-0.00004473,-0.00002304,-0.00000183,0.00000766,0
 .00002252,0.00000225,-0.00000014,0.00000855,-0.00000569,-0.00004725,-0
 .00002061,-0.00002729,0.00006271,-0.00004078,0.00008818,-0.00010243,-0
 .00034097,-0.00012447,-0.00239480,-0.00900431,-0.00228312,0.18923553,-
 0.14964225,0.03073253,-0.00002081,-0.00000260,0.00003284,0.00002341,-0
 .00000205,0.00001233,0.00001214,-0.00001032,0.00000096,0.00000358,-0.0
 0001031,0.00001903,-0.00000716,0.00000091,0.00000772,0.00001010,-0.000
 00550,0.00001411,-0.00000236,-0.00000795,-0.00000866,-0.00002155,0.000
 02079,-0.00002417,-0.00001634,0.00003442,-0.00002210,0.00002184,0.0000
 4648,-0.00002872,0.00021973,0.00010797,-0.00039078,-0.00006692,-0.0000
 8199,0.00000285,-0.00018811,0.00001914,0.00001066,0.00135991,0.0007465
 7,-0.00100884,-0.00055353,0.00205168,0.00086028,0.00012745,-0.00013220
 ,0.00006171,-0.00004331,-0.00002174,0.00000589,-0.00001116,0.00001196,
 0.00001766,-0.00000451,0.00001102,-0.00000107,0.00000810,-0.00002520,-
 0.00001063,-0.00001654,-0.00012210,0.00006960,-0.00066396,-0.00036882,
 -0.00015849,0.00008867,-0.00002072,0.00008020,-0.00000044,-0.00005161,
 -0.00004250,0.00001971,0.00005258,0.00002243,0.00004150,-0.00003205,0.
 00002755,-0.00002956,-0.00010990,-0.00001153,-0.00027806,-0.00001516,-
 0.00042708,-0.00002605,-0.00002249,-0.00000288,-0.00001342,-0.00000931
 ,-0.00001044,0.00000282,-0.00000335,-0.00002604,0.00001346,-0.00000575
 ,0.00000465,0.00000408,-0.00000983,-0.00000875,-0.00001314,0.00000595,
 0.00001392,-0.00000883,0.00001253,0.00000512,0.00000435,-0.00000679,-0
 .00000192,0.00000231,0.00000682,0.00000580,0.00000625,-0.00001082,-0.0
 0000462,-0.00003520,0.00005145,0.00001549,-0.00003345,0.00011791,-0.00
 018865,-0.00006695,0.00001606,0.00000577,0.00009767,-0.00005336,0.0000
 3191,0.00171744,-0.00094448,0.00191520,-0.21247518,0.17506227,-0.00008
 598,0.00000991,-0.00022402,-0.00008122,0.00000055,0.00032719,0.0001097
 2,-0.00006102,0.00009733,-0.00001117,0.00000354,0.00001259,0.00005366,
 -0.00005299,0.00002373,-0.00003732,0.00000123,0.00004550,0.00008903,-0
 .00007194,0.00002626,-0.00014981,0.00006567,0.00002394,-0.00007447,0.0
 0005178,-0.00003298,-0.00000996,0.00003193,-0.00003832,-0.00001784,0.0
 0005681,-0.00019693,-0.00014952,0.00027541,-0.00032320,0.00239895,-0.0
 0054047,0.00106975,0.00015219,-0.00516268,-0.00601857,-0.00014726,-0.0
 0002590,-0.00012634,0.03066208,-0.02250309,0.00414494,0.00166819,-0.00
 042627,0.00033207,-0.00069778,-0.00046967,-0.00057642,0.00023412,0.000
 33482,0.00000975,0.00000186,-0.00000678,0.00010105,-0.00002469,-0.0000
 5877,-0.00006482,-0.00142352,0.00078581,-0.00094049,0.00041511,-0.0011
 4266,0.00065728,-0.00251395,-0.00459185,-0.00137205,0.00068789,0.00096
 189,0.00008613,-0.00019203,-0.00084443,-0.00031937,-0.00008202,0.00034
 230,0.00004575,-0.00030626,0.00015565,-0.00018583,0.00039778,-0.000142
 61,0.00001130,-0.00037366,0.00020544,-0.00000487,0.00049474,0.00028579
 ,0.00063895,-0.00030392,-0.00016473,-0.00014279,0.00005591,0.00003354,
 -0.00000118,-0.00001597,-0.00002772,-0.00000764,0.00000960,-0.00000013
 ,-0.00000972,0.00000205,-0.00001357,-0.00002530,-0.00008230,0.00001213
 ,0.00006149,0.00049569,-0.00008830,0.00032615,0.00206705,0.00083571,-0
 .00241194,-0.11501053,0.05887016,-0.06316579,-0.00003868,0.00003591,0.
 00000915,-0.00001584,0.00002766,-0.00003027,-0.00001568,0.00000786,0.0
 0000523,-0.00000662,0.00000961,-0.00000618,-0.00000503,0.00000587,-0.0
 0000363,-0.00001876,0.00000806,-0.00000368,0.00000279,0.00000028,0.000
 00016,0.00004214,0.00000316,0.00000093,0.00002612,-0.00001117,0.000004
 00,0.00000932,-0.00001546,0.00001751,-0.00004782,-0.00008362,0.0001740
 7,0.00002126,-0.00043749,-0.00056787,-0.00030561,-0.00003834,0.0001552
 2,-0.00030801,0.00006492,0.00017589,0.00104655,-0.00028030,-0.00041922
 ,-0.00009838,0.00030623,-0.00010742,-0.00002723,0.00000834,-0.00001365
 ,0.00000680,0.00000448,-0.00003635,0.00000245,-0.00004251,-0.00001452,
 -0.00002280,-0.00000656,0.00001279,0.00004525,-0.00011149,-0.00029992,
 0.00090342,0.00054261,0.00032816,-0.00006187,0.00001391,-0.00011841,0.
 00002476,0.00003890,0.00004710,0.00006029,0.00001085,0.00003025,-0.000
 04668,0.00007883,0.00004306,-0.00000243,0.00003215,0.00000181,0.000284
 50,-0.00013657,0.00025319,0.00001904,0.00002232,0.00000227,0.00004153,
 0.00000638,0.00001865,-0.00000055,0.00001232,0.00003978,-0.00001760,-0
 .00000549,-0.00000090,-0.00000426,0.00001067,0.00002577,0.00003018,0.0
 0000765,-0.00002553,-0.00001192,-0.00003079,-0.00001518,0.00000169,0.0
 0000854,0.00001433,0.00000258,-0.00000767,0.00000814,0.00000292,0.0000
 1149,-0.00000228,0.00003055,-0.00003330,-0.00008107,0.00004659,-0.0000
 5119,-0.00004410,0.00016714,-0.00001818,-0.00007505,-0.00007617,0.0001
 5233,-0.00003702,0.00165840,0.00113544,0.00234033,0.07845125,-0.028181
 10,0.06634189\\-0.00000147,0.00000425,0.00000422,-0.00000130,-0.000008
 76,0.00000240,-0.00000299,0.00000584,0.00000724,0.00000684,0.00000224,
 0.00000404,-0.00000228,0.00001092,-0.00000039,0.00000563,-0.00000319,0
 .00000859,-0.00000267,0.00000091,-0.00000243,0.00000977,0.00000065,0.0
 0000099,0.00000414,-0.00000539,0.00000148,-0.00000172,0.00000022,0.000
 00270,-0.00000313,-0.00000036,0.00000275,0.00000047,0.00000580,-0.0000
 0011,-0.00000198,-0.00000436,-0.00000267,-0.00000115,0.00000863,0.0000
 0053,-0.00000325,-0.00000204,0.00000062,0.00000083,-0.00000376,-0.0000
 0035,-0.00000596,0.00000176,0.00000202,0.00000460,-0.00000129,-0.00000
 390,-0.00001134,0.00000173,0.00000343,0.00000482,-0.00000267,0.0000012
 9,-0.00000284,0.00000405,0.00000320,0.00000169,-0.00000281,-0.00000157
 ,-0.00000323,0.00000087,-0.00000218,0.00000091,-0.00000163,0.00000143,
 -0.00000733,0.00001164,-0.00000155,-0.00000437,-0.00000023,-0.00001136
 ,0.00000047,-0.00000450,-0.00000972,-0.00000044,0.00000138,0.00000862,
 0.00000584,-0.00000237,-0.00000609,-0.00000222,0.00000493,0.00000497,-
 0.00000386,-0.00000217,0.00000224,0.00000633,-0.00000117,-0.00000177,-
 0.00000007,-0.00000127,-0.00000200,0.00000383,-0.00000277,-0.00000296,
 0.00000246,0.00000369,-0.00000324,-0.00000117,-0.00000169,-0.00000308,
 -0.00000569,0.00000512,-0.00000255,0.00001088,-0.00000461,-0.00000267,
 -0.00000376,-0.00000304,0.00000010,-0.00000241,-0.00000186,0.00000307,
 0.00000222,0.00000057,0.00000087,-0.00000003,0.00000081,0.00000059,0.0
 0000009,0.00000177,0.00000139,0.00000234,-0.00000091,0.00000296,0.0000
 0214,0.00000260,0.00000283,0.00000384,0.00000136,0.00000291,0.00000275
 ,-0.00000001,0.00000017,0.00000135,0.00000261,0.00000143,0.00000162,0.
 00000181,0.00000390,-0.00000073,0.00000032,0.00000464,-0.00000043,-0.0
 0000096,0.00000267,-0.00000045,0.00000308,0.00000403,-0.00000273,-0.00
 000162,0.00000251,-0.00000316,-0.00000079,0.00000201,-0.00000138,0.000
 00086,0.00000190,-0.00000069,-0.00000118,-0.00000007,0.00000136,-0.000
 00007,0.00000020,-0.00000138,-0.00000066,-0.00000051,-0.00000225,0.000
 00138,0.00000057,-0.00000133,0.00000131,0.00000153,-0.00000302,0.00000
 032,-0.00000165,-0.00000347,-0.00000140,-0.00000258,0.00000094,-0.0000
 0190,-0.00000085,-0.00000108,-0.00000176,-0.00000092,-0.00000070,-0.00
 000108,-0.00000583,0.00000152,-0.00000189,-0.00000339,-0.00000217,0.00
 000091,-0.00000192,-0.00000470,-0.00000490,-0.00000163,0.00000076,0.00
 000035,-0.00000191,-0.00000177,-0.00000115,-0.00000496,0.00000323,-0.0
 0000154,-0.00000290,0.00000250,-0.00000064,-0.00000169,0.00000162,0.00
 000118,-0.00000242,0.00000225,-0.00000007,-0.00000166,0.00000157,-0.00
 000058,-0.00000032,0.00000251,-0.00000113,-0.00000199,0.00000374,0.000
 00167,0.00000040,0.00000292,0.00000051,-0.00000190,-0.00000064,-0.0000
 0261,-0.00000067,0.00000567,-0.00000097,0.00000219,0.00000365,-0.00000
 197,0.00000142,-0.00000666,-0.00000442,-0.00000208,-0.00000330,-0.0000
 0116,-0.00000078,-0.00000139,-0.00000074,-0.00000381\\\@


 EDUCATION IS NOT TRAINING BUT RATHER THE PROCESS THAT EQUIPS YOU TO
 ENTERTAIN YOURSELF, A FRIEND, OR AN IDEA.  -- WALLACE STERLING
 Job cpu time:      19 days  1 hours 13 minutes 46.9 seconds.
 File lengths (MBytes):  RWF=  23604 Int=      0 D2E=      0 Chk=     97 Scr=      1
 Normal termination of Gaussian 09 at Sun May 22 20:16:01 2016.
