 Entering Gaussian System, Link 0=g09
 Initial command:
 /share/apps//g09/l1.exe "/scratch/Gau-30113.inp" -scrdir="/scratch/"
 Entering Link 1 = /share/apps//g09/l1.exe PID=     30114.
  
 Copyright (c) 1988,1990,1992,1993,1995,1998,2003,2009,2013,
            Gaussian, Inc.  All Rights Reserved.
  
 This is part of the Gaussian(R) 09 program.  It is based on
 the Gaussian(R) 03 system (copyright 2003, Gaussian, Inc.),
 the Gaussian(R) 98 system (copyright 1998, Gaussian, Inc.),
 the Gaussian(R) 94 system (copyright 1995, Gaussian, Inc.),
 the Gaussian 92(TM) system (copyright 1992, Gaussian, Inc.),
 the Gaussian 90(TM) system (copyright 1990, Gaussian, Inc.),
 the Gaussian 88(TM) system (copyright 1988, Gaussian, Inc.),
 the Gaussian 86(TM) system (copyright 1986, Carnegie Mellon
 University), and the Gaussian 82(TM) system (copyright 1983,
 Carnegie Mellon University). Gaussian is a federally registered
 trademark of Gaussian, Inc.
  
 This software contains proprietary and confidential information,
 including trade secrets, belonging to Gaussian, Inc.
  
 This software is provided under written license and may be
 used, copied, transmitted, or stored only in accord with that
 written license.
  
 The following legend is applicable only to US Government
 contracts under FAR:
  
                    RESTRICTED RIGHTS LEGEND
  
 Use, reproduction and disclosure by the US Government is
 subject to restrictions as set forth in subparagraphs (a)
 and (c) of the Commercial Computer Software - Restricted
 Rights clause in FAR 52.227-19.
  
 Gaussian, Inc.
 340 Quinnipiac St., Bldg. 40, Wallingford CT 06492
  
  
 ---------------------------------------------------------------
 Warning -- This program may not be used in any manner that
 competes with the business of Gaussian, Inc. or will provide
 assistance to any competitor of Gaussian, Inc.  The licensee
 of this program is prohibited from giving any competitor of
 Gaussian, Inc. access to this program.  By using this program,
 the user acknowledges that Gaussian, Inc. is engaged in the
 business of creating and licensing software in the field of
 computational chemistry and represents and warrants to the
 licensee that it is not a competitor of Gaussian, Inc. and that
 it will not use this program in any manner prohibited above.
 ---------------------------------------------------------------
  

 Cite this work as:
 Gaussian 09, Revision D.01,
 M. J. Frisch, G. W. Trucks, H. B. Schlegel, G. E. Scuseria, 
 M. A. Robb, J. R. Cheeseman, G. Scalmani, V. Barone, B. Mennucci, 
 G. A. Petersson, H. Nakatsuji, M. Caricato, X. Li, H. P. Hratchian, 
 A. F. Izmaylov, J. Bloino, G. Zheng, J. L. Sonnenberg, M. Hada, 
 M. Ehara, K. Toyota, R. Fukuda, J. Hasegawa, M. Ishida, T. Nakajima, 
 Y. Honda, O. Kitao, H. Nakai, T. Vreven, J. A. Montgomery, Jr., 
 J. E. Peralta, F. Ogliaro, M. Bearpark, J. J. Heyd, E. Brothers, 
 K. N. Kudin, V. N. Staroverov, T. Keith, R. Kobayashi, J. Normand, 
 K. Raghavachari, A. Rendell, J. C. Burant, S. S. Iyengar, J. Tomasi, 
 M. Cossi, N. Rega, J. M. Millam, M. Klene, J. E. Knox, J. B. Cross, 
 V. Bakken, C. Adamo, J. Jaramillo, R. Gomperts, R. E. Stratmann, 
 O. Yazyev, A. J. Austin, R. Cammi, C. Pomelli, J. W. Ochterski, 
 R. L. Martin, K. Morokuma, V. G. Zakrzewski, G. A. Voth, 
 P. Salvador, J. J. Dannenberg, S. Dapprich, A. D. Daniels, 
 O. Farkas, J. B. Foresman, J. V. Ortiz, J. Cioslowski, 
 and D. J. Fox, Gaussian, Inc., Wallingford CT, 2013.
 
 ******************************************
 Gaussian 09:  EM64L-G09RevD.01 24-Apr-2013
                22-Mar-2016 
 ******************************************
 %nproc=20
 Will use up to   20 processors via shared memory.
 %mem=80GB
 %chk=Tri_A154_of.chk
 -------------------------------------------------------------------
 #P PBE1PBE/6-311+G(d,p) opt optcyc=999 freq EmpiricalDispersion=GD3
 -------------------------------------------------------------------
 1/6=999,14=-1,18=20,19=15,26=3,38=1/1,3;
 2/9=110,12=2,17=6,18=5,40=1/2;
 3/5=4,6=6,7=111,11=2,16=1,25=1,30=1,71=1,74=-13,124=31/1,2,3;
 4//1;
 5/5=2,38=5/2;
 6/7=2,8=2,9=2,10=2,28=1/1;
 7//1,2,3,16;
 1/6=999,14=-1,18=20,19=15,26=3/3(2);
 2/9=110/2;
 99//99;
 2/9=110/2;
 3/5=4,6=6,7=111,11=2,16=1,25=1,30=1,71=1,74=-13,124=31/1,2,3;
 4/5=5,16=3,69=1/1;
 5/5=2,38=5/2;
 7//1,2,3,16;
 1/6=999,14=-1,18=20,19=15,26=3/3(-5);
 2/9=110/2;
 6/7=2,8=2,9=2,10=2,19=2,28=1/1;
 99/9=1/99;
 Leave Link    1 at Tue Mar 22 18:28:02 2016, MaxMem= 10737418240 cpu:         2.1
 (Enter /share/apps//g09/l101.exe)
 -------
 disacch
 -------
 Symbolic Z-matrix:
 Charge =  1 Multiplicity = 1
 O                    -3.74283   0.12865   0.55401 
 C                    -3.08663   0.16523   1.80866 
 C                    -2.50286   1.535     2.10774 
 C                    -3.49872   2.64629   1.85588 
 C                    -4.07235   2.53129   0.4531 
 C                    -4.67542   1.1512    0.27124 
 C                    -5.26926   0.84261  -1.10405 
 O                    -4.31755   0.43613  -2.06313 
 O                    -3.05829   2.81129  -0.49873 
 O                    -2.87893   3.907     1.93563 
 O                    -2.08707   1.61826   3.43829 
 O                    -2.02467  -0.7006    1.68626 
 C                    -2.01094  -1.96061   2.32922 
 C                    -0.81193  -1.97653   3.25507 
 O                    -0.94775  -0.94957   4.21326 
 C                     0.44249  -1.75973   2.43491 
 C                     0.54965  -2.75283   1.27581 
 O                    -0.65543  -2.8425    0.54484 
 C                    -1.82207  -3.06848   1.29617 
 C                    -2.96117  -3.24007   0.30301 
 O                    -3.06549  -2.19537  -0.6398 
 O                     1.55529  -2.42694   0.37555 
 C                     1.4819   -1.15833  -0.24718 
 C                     2.71479  -0.35026   0.11289 
 C                     2.72626   0.95802  -0.64755 
 C                     2.60356   0.70926  -2.13776 
 O                     1.45878  -0.0668   -2.39708 
 C                     1.4379   -1.33384  -1.76726 
 C                     0.19349  -2.02503  -2.27382 
 O                    -0.95572  -1.24031  -2.03758 
 O                     2.43114   1.92995  -2.7502 
 C                     2.7181    1.9784   -4.14933 
 C                     1.84311   3.03935  -4.79175 
 C                     0.53198   2.54071  -5.39972 
 C                    -0.33638   1.63852  -4.53148 
 C                    -0.78787   2.27471  -3.23579 
 N                    -1.67806   1.35424  -2.48984 
 O                     3.92031   1.61428  -0.31097 
 O                     2.74822  -0.0948    1.50127 
 O                     1.5414   -1.8609    3.29428 
 H                    -3.77813  -0.14377   2.60608 
 H                    -1.66064   1.66582   1.41423 
 H                    -4.31596   2.56822   2.58468 
 H                    -4.8816    3.26274   0.34252 
 H                    -5.50845   1.10521   0.98856 
 H                    -5.76328   1.73842  -1.48266 
 H                    -6.03204   0.06941  -0.98764 
 H                    -4.20989  -0.51597  -2.00354 
 H                    -2.59959   3.58524  -0.14856 
 H                    -2.37409   3.94406   2.75242 
 H                    -1.5795    0.82415   3.67287 
 H                    -2.93487  -2.11735   2.89552 
 H                    -0.76302  -2.95166   3.75607 
 H                    -0.10973  -0.9014    4.68476 
 H                     0.37267  -0.74927   2.02593 
 H                     0.82922  -3.73662   1.67153 
 H                    -1.74765  -4.01648   1.85244 
 H                    -2.78543  -4.1526   -0.26622 
 H                    -3.89933  -3.36711   0.85459 
 H                    -3.29667  -1.37301  -0.17608 
 H                     0.5763   -0.62376   0.05197 
 H                     3.59935  -0.93493  -0.17444 
 H                     1.851     1.54928  -0.34276 
 H                     3.5013    0.19151  -2.51324 
 H                     2.30881  -1.93145  -2.07348 
 H                     0.30306  -2.17471  -3.3512 
 H                     0.10307  -2.99837  -1.79375 
 H                    -1.58337  -1.7075   -1.45329 
 H                     2.53888   0.99635  -4.59712 
 H                     3.77735   2.2201   -4.27213 
 H                     2.41076   3.52818  -5.58581 
 H                     1.66142   3.81212  -4.03992 
 H                     0.76343   1.98454  -6.3117 
 H                    -0.05107   3.40822  -5.72227 
 H                     0.20022   0.71896  -4.28968 
 H                    -1.21676   1.34892  -5.11449 
 H                     0.06666   2.48933  -2.5964 
 H                    -1.3399    3.19982  -3.40997 
 H                    -2.53462   1.14393  -3.00203 
 H                    -2.02701   1.77018  -1.61373 
 H                    -1.22891   0.42984  -2.29032 
 H                     3.93037   2.47544  -0.73355 
 H                     3.46501   0.52755   1.65574 
 H                     2.25867  -1.36845   2.87301 
 
 NAtoms=     84 NQM=       84 NQMF=       0 NMMI=      0 NMMIF=      0
                NMic=       0 NMicF=      0.
                    Isotopes and Nuclear Properties:
 (Nuclear quadrupole moments (NQMom) in fm**2, nuclear magnetic moments (NMagM)
  in nuclear magnetons)

  Atom         1           2           3           4           5           6           7           8           9          10
 IAtWgt=          16          12          12          12          12          12          12          16          16          16
 AtmWgt=  15.9949146  12.0000000  12.0000000  12.0000000  12.0000000  12.0000000  12.0000000  15.9949146  15.9949146  15.9949146
 NucSpn=           0           0           0           0           0           0           0           0           0           0
 AtZEff=   0.0000000   0.0000000   0.0000000   0.0000000   0.0000000   0.0000000   0.0000000   0.0000000   0.0000000   0.0000000
 NQMom=    0.0000000   0.0000000   0.0000000   0.0000000   0.0000000   0.0000000   0.0000000   0.0000000   0.0000000   0.0000000
 NMagM=    0.0000000   0.0000000   0.0000000   0.0000000   0.0000000   0.0000000   0.0000000   0.0000000   0.0000000   0.0000000
 AtZNuc=   8.0000000   6.0000000   6.0000000   6.0000000   6.0000000   6.0000000   6.0000000   8.0000000   8.0000000   8.0000000

  Atom        11          12          13          14          15          16          17          18          19          20
 IAtWgt=          16          16          12          12          16          12          12          16          12          12
 AtmWgt=  15.9949146  15.9949146  12.0000000  12.0000000  15.9949146  12.0000000  12.0000000  15.9949146  12.0000000  12.0000000
 NucSpn=           0           0           0           0           0           0           0           0           0           0
 AtZEff=   0.0000000   0.0000000   0.0000000   0.0000000   0.0000000   0.0000000   0.0000000   0.0000000   0.0000000   0.0000000
 NQMom=    0.0000000   0.0000000   0.0000000   0.0000000   0.0000000   0.0000000   0.0000000   0.0000000   0.0000000   0.0000000
 NMagM=    0.0000000   0.0000000   0.0000000   0.0000000   0.0000000   0.0000000   0.0000000   0.0000000   0.0000000   0.0000000
 AtZNuc=   8.0000000   8.0000000   6.0000000   6.0000000   8.0000000   6.0000000   6.0000000   8.0000000   6.0000000   6.0000000

  Atom        21          22          23          24          25          26          27          28          29          30
 IAtWgt=          16          16          12          12          12          12          16          12          12          16
 AtmWgt=  15.9949146  15.9949146  12.0000000  12.0000000  12.0000000  12.0000000  15.9949146  12.0000000  12.0000000  15.9949146
 NucSpn=           0           0           0           0           0           0           0           0           0           0
 AtZEff=   0.0000000   0.0000000   0.0000000   0.0000000   0.0000000   0.0000000   0.0000000   0.0000000   0.0000000   0.0000000
 NQMom=    0.0000000   0.0000000   0.0000000   0.0000000   0.0000000   0.0000000   0.0000000   0.0000000   0.0000000   0.0000000
 NMagM=    0.0000000   0.0000000   0.0000000   0.0000000   0.0000000   0.0000000   0.0000000   0.0000000   0.0000000   0.0000000
 AtZNuc=   8.0000000   8.0000000   6.0000000   6.0000000   6.0000000   6.0000000   8.0000000   6.0000000   6.0000000   8.0000000

  Atom        31          32          33          34          35          36          37          38          39          40
 IAtWgt=          16          12          12          12          12          12          14          16          16          16
 AtmWgt=  15.9949146  12.0000000  12.0000000  12.0000000  12.0000000  12.0000000  14.0030740  15.9949146  15.9949146  15.9949146
 NucSpn=           0           0           0           0           0           0           2           0           0           0
 AtZEff=   0.0000000   0.0000000   0.0000000   0.0000000   0.0000000   0.0000000   0.0000000   0.0000000   0.0000000   0.0000000
 NQMom=    0.0000000   0.0000000   0.0000000   0.0000000   0.0000000   0.0000000   2.0440000   0.0000000   0.0000000   0.0000000
 NMagM=    0.0000000   0.0000000   0.0000000   0.0000000   0.0000000   0.0000000   0.4037610   0.0000000   0.0000000   0.0000000
 AtZNuc=   8.0000000   6.0000000   6.0000000   6.0000000   6.0000000   6.0000000   7.0000000   8.0000000   8.0000000   8.0000000

  Atom        41          42          43          44          45          46          47          48          49          50
 IAtWgt=           1           1           1           1           1           1           1           1           1           1
 AtmWgt=   1.0078250   1.0078250   1.0078250   1.0078250   1.0078250   1.0078250   1.0078250   1.0078250   1.0078250   1.0078250
 NucSpn=           1           1           1           1           1           1           1           1           1           1
 AtZEff=   0.0000000   0.0000000   0.0000000   0.0000000   0.0000000   0.0000000   0.0000000   0.0000000   0.0000000   0.0000000
 NQMom=    0.0000000   0.0000000   0.0000000   0.0000000   0.0000000   0.0000000   0.0000000   0.0000000   0.0000000   0.0000000
 NMagM=    2.7928460   2.7928460   2.7928460   2.7928460   2.7928460   2.7928460   2.7928460   2.7928460   2.7928460   2.7928460
 AtZNuc=   1.0000000   1.0000000   1.0000000   1.0000000   1.0000000   1.0000000   1.0000000   1.0000000   1.0000000   1.0000000

  Atom        51          52          53          54          55          56          57          58          59          60
 IAtWgt=           1           1           1           1           1           1           1           1           1           1
 AtmWgt=   1.0078250   1.0078250   1.0078250   1.0078250   1.0078250   1.0078250   1.0078250   1.0078250   1.0078250   1.0078250
 NucSpn=           1           1           1           1           1           1           1           1           1           1
 AtZEff=   0.0000000   0.0000000   0.0000000   0.0000000   0.0000000   0.0000000   0.0000000   0.0000000   0.0000000   0.0000000
 NQMom=    0.0000000   0.0000000   0.0000000   0.0000000   0.0000000   0.0000000   0.0000000   0.0000000   0.0000000   0.0000000
 NMagM=    2.7928460   2.7928460   2.7928460   2.7928460   2.7928460   2.7928460   2.7928460   2.7928460   2.7928460   2.7928460
 AtZNuc=   1.0000000   1.0000000   1.0000000   1.0000000   1.0000000   1.0000000   1.0000000   1.0000000   1.0000000   1.0000000

  Atom        61          62          63          64          65          66          67          68          69          70
 IAtWgt=           1           1           1           1           1           1           1           1           1           1
 AtmWgt=   1.0078250   1.0078250   1.0078250   1.0078250   1.0078250   1.0078250   1.0078250   1.0078250   1.0078250   1.0078250
 NucSpn=           1           1           1           1           1           1           1           1           1           1
 AtZEff=   0.0000000   0.0000000   0.0000000   0.0000000   0.0000000   0.0000000   0.0000000   0.0000000   0.0000000   0.0000000
 NQMom=    0.0000000   0.0000000   0.0000000   0.0000000   0.0000000   0.0000000   0.0000000   0.0000000   0.0000000   0.0000000
 NMagM=    2.7928460   2.7928460   2.7928460   2.7928460   2.7928460   2.7928460   2.7928460   2.7928460   2.7928460   2.7928460
 AtZNuc=   1.0000000   1.0000000   1.0000000   1.0000000   1.0000000   1.0000000   1.0000000   1.0000000   1.0000000   1.0000000

  Atom        71          72          73          74          75          76          77          78          79          80
 IAtWgt=           1           1           1           1           1           1           1           1           1           1
 AtmWgt=   1.0078250   1.0078250   1.0078250   1.0078250   1.0078250   1.0078250   1.0078250   1.0078250   1.0078250   1.0078250
 NucSpn=           1           1           1           1           1           1           1           1           1           1
 AtZEff=   0.0000000   0.0000000   0.0000000   0.0000000   0.0000000   0.0000000   0.0000000   0.0000000   0.0000000   0.0000000
 NQMom=    0.0000000   0.0000000   0.0000000   0.0000000   0.0000000   0.0000000   0.0000000   0.0000000   0.0000000   0.0000000
 NMagM=    2.7928460   2.7928460   2.7928460   2.7928460   2.7928460   2.7928460   2.7928460   2.7928460   2.7928460   2.7928460
 AtZNuc=   1.0000000   1.0000000   1.0000000   1.0000000   1.0000000   1.0000000   1.0000000   1.0000000   1.0000000   1.0000000

  Atom        81          82          83          84
 IAtWgt=           1           1           1           1
 AtmWgt=   1.0078250   1.0078250   1.0078250   1.0078250
 NucSpn=           1           1           1           1
 AtZEff=   0.0000000   0.0000000   0.0000000   0.0000000
 NQMom=    0.0000000   0.0000000   0.0000000   0.0000000
 NMagM=    2.7928460   2.7928460   2.7928460   2.7928460
 AtZNuc=   1.0000000   1.0000000   1.0000000   1.0000000
 Leave Link  101 at Tue Mar 22 18:28:03 2016, MaxMem= 10737418240 cpu:         5.1
 (Enter /share/apps//g09/l103.exe)

 GradGradGradGradGradGradGradGradGradGradGradGradGradGradGradGradGradGrad
 Berny optimization.
 Initialization pass.
                           ----------------------------
                           !    Initial Parameters    !
                           ! (Angstroms and Degrees)  !
 --------------------------                            --------------------------
 ! Name  Definition              Value          Derivative Info.                !
 --------------------------------------------------------------------------------
 ! R1    R(1,2)                  1.4164         estimate D2E/DX2                !
 ! R2    R(1,6)                  1.4125         estimate D2E/DX2                !
 ! R3    R(2,3)                  1.5187         estimate D2E/DX2                !
 ! R4    R(2,12)                 1.3756         estimate D2E/DX2                !
 ! R5    R(2,41)                 1.0998         estimate D2E/DX2                !
 ! R6    R(3,4)                  1.5133         estimate D2E/DX2                !
 ! R7    R(3,11)                 1.3965         estimate D2E/DX2                !
 ! R8    R(3,42)                 1.0988         estimate D2E/DX2                !
 ! R9    R(4,5)                  1.5199         estimate D2E/DX2                !
 ! R10   R(4,10)                 1.4071         estimate D2E/DX2                !
 ! R11   R(4,43)                 1.0978         estimate D2E/DX2                !
 ! R12   R(5,6)                  1.517          estimate D2E/DX2                !
 ! R13   R(5,9)                  1.4187         estimate D2E/DX2                !
 ! R14   R(5,44)                 1.0964         estimate D2E/DX2                !
 ! R15   R(6,7)                  1.5295         estimate D2E/DX2                !
 ! R16   R(6,45)                 1.1003         estimate D2E/DX2                !
 ! R17   R(7,8)                  1.411          estimate D2E/DX2                !
 ! R18   R(7,46)                 1.0908         estimate D2E/DX2                !
 ! R19   R(7,47)                 1.0923         estimate D2E/DX2                !
 ! R20   R(8,48)                 0.96           estimate D2E/DX2                !
 ! R21   R(9,49)                 0.9654         estimate D2E/DX2                !
 ! R22   R(10,50)                0.9609         estimate D2E/DX2                !
 ! R23   R(11,51)                0.9712         estimate D2E/DX2                !
 ! R24   R(12,13)                1.4146         estimate D2E/DX2                !
 ! R25   R(13,14)                1.515          estimate D2E/DX2                !
 ! R26   R(13,19)                1.5265         estimate D2E/DX2                !
 ! R27   R(13,52)                1.0949         estimate D2E/DX2                !
 ! R28   R(14,15)                1.4111         estimate D2E/DX2                !
 ! R29   R(14,16)                1.5143         estimate D2E/DX2                !
 ! R30   R(14,53)                1.0974         estimate D2E/DX2                !
 ! R31   R(15,54)                0.9628         estimate D2E/DX2                !
 ! R32   R(16,17)                1.5301         estimate D2E/DX2                !
 ! R33   R(16,40)                1.3987         estimate D2E/DX2                !
 ! R34   R(16,55)                1.0923         estimate D2E/DX2                !
 ! R35   R(17,18)                1.4123         estimate D2E/DX2                !
 ! R36   R(17,22)                1.3885         estimate D2E/DX2                !
 ! R37   R(17,56)                1.0966         estimate D2E/DX2                !
 ! R38   R(18,19)                1.4059         estimate D2E/DX2                !
 ! R39   R(19,20)                1.521          estimate D2E/DX2                !
 ! R40   R(19,57)                1.1017         estimate D2E/DX2                !
 ! R41   R(20,21)                1.4111         estimate D2E/DX2                !
 ! R42   R(20,58)                1.0898         estimate D2E/DX2                !
 ! R43   R(20,59)                1.0957         estimate D2E/DX2                !
 ! R44   R(21,60)                0.972          estimate D2E/DX2                !
 ! R45   R(22,23)                1.4151         estimate D2E/DX2                !
 ! R46   R(23,24)                1.5174         estimate D2E/DX2                !
 ! R47   R(23,28)                1.5308         estimate D2E/DX2                !
 ! R48   R(23,61)                1.0933         estimate D2E/DX2                !
 ! R49   R(24,25)                1.5133         estimate D2E/DX2                !
 ! R50   R(24,39)                1.4121         estimate D2E/DX2                !
 ! R51   R(24,62)                1.0986         estimate D2E/DX2                !
 ! R52   R(25,26)                1.5158         estimate D2E/DX2                !
 ! R53   R(25,38)                1.4035         estimate D2E/DX2                !
 ! R54   R(25,63)                1.0993         estimate D2E/DX2                !
 ! R55   R(26,27)                1.4071         estimate D2E/DX2                !
 ! R56   R(26,31)                1.3766         estimate D2E/DX2                !
 ! R57   R(26,64)                1.1023         estimate D2E/DX2                !
 ! R58   R(27,28)                1.4151         estimate D2E/DX2                !
 ! R59   R(28,29)                1.5109         estimate D2E/DX2                !
 ! R60   R(28,65)                1.0997         estimate D2E/DX2                !
 ! R61   R(29,30)                1.4115         estimate D2E/DX2                !
 ! R62   R(29,66)                1.0932         estimate D2E/DX2                !
 ! R63   R(29,67)                1.0891         estimate D2E/DX2                !
 ! R64   R(30,68)                0.9765         estimate D2E/DX2                !
 ! R65   R(31,32)                1.4291         estimate D2E/DX2                !
 ! R66   R(32,33)                1.5179         estimate D2E/DX2                !
 ! R67   R(32,69)                1.0941         estimate D2E/DX2                !
 ! R68   R(32,70)                1.0934         estimate D2E/DX2                !
 ! R69   R(33,34)                1.5288         estimate D2E/DX2                !
 ! R70   R(33,71)                1.0917         estimate D2E/DX2                !
 ! R71   R(33,72)                1.0934         estimate D2E/DX2                !
 ! R72   R(34,35)                1.5238         estimate D2E/DX2                !
 ! R73   R(34,73)                1.093          estimate D2E/DX2                !
 ! R74   R(34,74)                1.0939         estimate D2E/DX2                !
 ! R75   R(35,36)                1.5124         estimate D2E/DX2                !
 ! R76   R(35,75)                1.0918         estimate D2E/DX2                !
 ! R77   R(35,76)                1.0949         estimate D2E/DX2                !
 ! R78   R(36,37)                1.4819         estimate D2E/DX2                !
 ! R79   R(36,77)                1.0886         estimate D2E/DX2                !
 ! R80   R(36,78)                1.0913         estimate D2E/DX2                !
 ! R81   R(37,79)                1.0199         estimate D2E/DX2                !
 ! R82   R(37,80)                1.0307         estimate D2E/DX2                !
 ! R83   R(37,81)                1.0469         estimate D2E/DX2                !
 ! R84   R(38,82)                0.9593         estimate D2E/DX2                !
 ! R85   R(39,83)                0.9618         estimate D2E/DX2                !
 ! R86   R(40,84)                0.9667         estimate D2E/DX2                !
 ! A1    A(2,1,6)              117.6786         estimate D2E/DX2                !
 ! A2    A(1,2,3)              112.0752         estimate D2E/DX2                !
 ! A3    A(1,2,12)             105.2233         estimate D2E/DX2                !
 ! A4    A(1,2,41)             110.1039         estimate D2E/DX2                !
 ! A5    A(3,2,12)             106.7657         estimate D2E/DX2                !
 ! A6    A(3,2,41)             110.6284         estimate D2E/DX2                !
 ! A7    A(12,2,41)            111.9044         estimate D2E/DX2                !
 ! A8    A(2,3,4)              112.123          estimate D2E/DX2                !
 ! A9    A(2,3,11)             110.8456         estimate D2E/DX2                !
 ! A10   A(2,3,42)             106.1236         estimate D2E/DX2                !
 ! A11   A(4,3,11)             108.1026         estimate D2E/DX2                !
 ! A12   A(4,3,42)             108.1752         estimate D2E/DX2                !
 ! A13   A(11,3,42)            111.4711         estimate D2E/DX2                !
 ! A14   A(3,4,5)              110.2676         estimate D2E/DX2                !
 ! A15   A(3,4,10)             111.0175         estimate D2E/DX2                !
 ! A16   A(3,4,43)             109.0977         estimate D2E/DX2                !
 ! A17   A(5,4,10)             106.6393         estimate D2E/DX2                !
 ! A18   A(5,4,43)             109.0494         estimate D2E/DX2                !
 ! A19   A(10,4,43)            110.7324         estimate D2E/DX2                !
 ! A20   A(4,5,6)              109.2389         estimate D2E/DX2                !
 ! A21   A(4,5,9)              109.5433         estimate D2E/DX2                !
 ! A22   A(4,5,44)             108.7338         estimate D2E/DX2                !
 ! A23   A(6,5,9)              112.5362         estimate D2E/DX2                !
 ! A24   A(6,5,44)             107.5417         estimate D2E/DX2                !
 ! A25   A(9,5,44)             109.1619         estimate D2E/DX2                !
 ! A26   A(1,6,5)              111.8451         estimate D2E/DX2                !
 ! A27   A(1,6,7)              106.8751         estimate D2E/DX2                !
 ! A28   A(1,6,45)             109.8215         estimate D2E/DX2                !
 ! A29   A(5,6,7)              116.4673         estimate D2E/DX2                !
 ! A30   A(5,6,45)             105.1203         estimate D2E/DX2                !
 ! A31   A(7,6,45)             106.489          estimate D2E/DX2                !
 ! A32   A(6,7,8)              114.0446         estimate D2E/DX2                !
 ! A33   A(6,7,46)             108.7989         estimate D2E/DX2                !
 ! A34   A(6,7,47)             108.5487         estimate D2E/DX2                !
 ! A35   A(8,7,46)             107.8266         estimate D2E/DX2                !
 ! A36   A(8,7,47)             109.8481         estimate D2E/DX2                !
 ! A37   A(46,7,47)            107.5797         estimate D2E/DX2                !
 ! A38   A(7,8,48)             108.6122         estimate D2E/DX2                !
 ! A39   A(5,9,49)             104.7432         estimate D2E/DX2                !
 ! A40   A(4,10,50)            108.3091         estimate D2E/DX2                !
 ! A41   A(3,11,51)            109.693          estimate D2E/DX2                !
 ! A42   A(2,12,13)            121.847          estimate D2E/DX2                !
 ! A43   A(12,13,14)           107.146          estimate D2E/DX2                !
 ! A44   A(12,13,19)           109.8795         estimate D2E/DX2                !
 ! A45   A(12,13,52)           110.7553         estimate D2E/DX2                !
 ! A46   A(14,13,19)           107.9407         estimate D2E/DX2                !
 ! A47   A(14,13,52)           110.5028         estimate D2E/DX2                !
 ! A48   A(19,13,52)           110.5189         estimate D2E/DX2                !
 ! A49   A(13,14,15)           109.3392         estimate D2E/DX2                !
 ! A50   A(13,14,16)           108.8511         estimate D2E/DX2                !
 ! A51   A(13,14,53)           108.882          estimate D2E/DX2                !
 ! A52   A(15,14,16)           110.0781         estimate D2E/DX2                !
 ! A53   A(15,14,53)           109.9361         estimate D2E/DX2                !
 ! A54   A(16,14,53)           109.7278         estimate D2E/DX2                !
 ! A55   A(14,15,54)           106.5697         estimate D2E/DX2                !
 ! A56   A(14,16,17)           112.047          estimate D2E/DX2                !
 ! A57   A(14,16,40)           107.9206         estimate D2E/DX2                !
 ! A58   A(14,16,55)           106.3956         estimate D2E/DX2                !
 ! A59   A(17,16,40)           111.3129         estimate D2E/DX2                !
 ! A60   A(17,16,55)           108.7382         estimate D2E/DX2                !
 ! A61   A(40,16,55)           110.3144         estimate D2E/DX2                !
 ! A62   A(16,17,18)           111.9334         estimate D2E/DX2                !
 ! A63   A(16,17,22)           112.9259         estimate D2E/DX2                !
 ! A64   A(16,17,56)           109.0718         estimate D2E/DX2                !
 ! A65   A(18,17,22)           107.2965         estimate D2E/DX2                !
 ! A66   A(18,17,56)           110.3247         estimate D2E/DX2                !
 ! A67   A(22,17,56)           105.0627         estimate D2E/DX2                !
 ! A68   A(17,18,19)           116.2102         estimate D2E/DX2                !
 ! A69   A(13,19,18)           110.3447         estimate D2E/DX2                !
 ! A70   A(13,19,20)           115.5379         estimate D2E/DX2                !
 ! A71   A(13,19,57)           106.9279         estimate D2E/DX2                !
 ! A72   A(18,19,20)           106.8965         estimate D2E/DX2                !
 ! A73   A(18,19,57)           110.6156         estimate D2E/DX2                !
 ! A74   A(20,19,57)           106.4526         estimate D2E/DX2                !
 ! A75   A(19,20,21)           114.0872         estimate D2E/DX2                !
 ! A76   A(19,20,58)           108.3467         estimate D2E/DX2                !
 ! A77   A(19,20,59)           109.0032         estimate D2E/DX2                !
 ! A78   A(21,20,58)           106.4311         estimate D2E/DX2                !
 ! A79   A(21,20,59)           111.0321         estimate D2E/DX2                !
 ! A80   A(58,20,59)           107.6944         estimate D2E/DX2                !
 ! A81   A(20,21,60)           108.9779         estimate D2E/DX2                !
 ! A82   A(17,22,23)           117.2684         estimate D2E/DX2                !
 ! A83   A(22,23,24)           109.3193         estimate D2E/DX2                !
 ! A84   A(22,23,28)           109.6139         estimate D2E/DX2                !
 ! A85   A(22,23,61)           111.1536         estimate D2E/DX2                !
 ! A86   A(24,23,28)           108.6648         estimate D2E/DX2                !
 ! A87   A(24,23,61)           110.3453         estimate D2E/DX2                !
 ! A88   A(28,23,61)           107.6948         estimate D2E/DX2                !
 ! A89   A(23,24,25)           110.3223         estimate D2E/DX2                !
 ! A90   A(23,24,39)           110.4186         estimate D2E/DX2                !
 ! A91   A(23,24,62)           107.9825         estimate D2E/DX2                !
 ! A92   A(25,24,39)           109.7244         estimate D2E/DX2                !
 ! A93   A(25,24,62)           108.8191         estimate D2E/DX2                !
 ! A94   A(39,24,62)           109.5349         estimate D2E/DX2                !
 ! A95   A(24,25,26)           110.5812         estimate D2E/DX2                !
 ! A96   A(24,25,38)           106.8695         estimate D2E/DX2                !
 ! A97   A(24,25,63)           108.6398         estimate D2E/DX2                !
 ! A98   A(26,25,38)           112.4191         estimate D2E/DX2                !
 ! A99   A(26,25,63)           107.2404         estimate D2E/DX2                !
 ! A100  A(38,25,63)           111.0626         estimate D2E/DX2                !
 ! A101  A(25,26,27)           109.7272         estimate D2E/DX2                !
 ! A102  A(25,26,31)           107.5781         estimate D2E/DX2                !
 ! A103  A(25,26,64)           110.2459         estimate D2E/DX2                !
 ! A104  A(27,26,31)           107.7688         estimate D2E/DX2                !
 ! A105  A(27,26,64)           109.9235         estimate D2E/DX2                !
 ! A106  A(31,26,64)           111.53           estimate D2E/DX2                !
 ! A107  A(26,27,28)           115.0744         estimate D2E/DX2                !
 ! A108  A(23,28,27)           109.8082         estimate D2E/DX2                !
 ! A109  A(23,28,29)           114.1443         estimate D2E/DX2                !
 ! A110  A(23,28,65)           108.4237         estimate D2E/DX2                !
 ! A111  A(27,28,29)           105.8151         estimate D2E/DX2                !
 ! A112  A(27,28,65)           110.5452         estimate D2E/DX2                !
 ! A113  A(29,28,65)           108.077          estimate D2E/DX2                !
 ! A114  A(28,29,30)           111.1081         estimate D2E/DX2                !
 ! A115  A(28,29,66)           108.0887         estimate D2E/DX2                !
 ! A116  A(28,29,67)           109.2352         estimate D2E/DX2                !
 ! A117  A(30,29,66)           108.8241         estimate D2E/DX2                !
 ! A118  A(30,29,67)           110.8245         estimate D2E/DX2                !
 ! A119  A(66,29,67)           108.6857         estimate D2E/DX2                !
 ! A120  A(29,30,68)           110.945          estimate D2E/DX2                !
 ! A121  A(26,31,32)           116.1357         estimate D2E/DX2                !
 ! A122  A(31,32,33)           108.8029         estimate D2E/DX2                !
 ! A123  A(31,32,69)           109.7171         estimate D2E/DX2                !
 ! A124  A(31,32,70)           108.1787         estimate D2E/DX2                !
 ! A125  A(33,32,69)           111.0842         estimate D2E/DX2                !
 ! A126  A(33,32,70)           110.88           estimate D2E/DX2                !
 ! A127  A(69,32,70)           108.1279         estimate D2E/DX2                !
 ! A128  A(32,33,34)           115.7666         estimate D2E/DX2                !
 ! A129  A(32,33,71)           108.7293         estimate D2E/DX2                !
 ! A130  A(32,33,72)           107.3847         estimate D2E/DX2                !
 ! A131  A(34,33,71)           107.6218         estimate D2E/DX2                !
 ! A132  A(34,33,72)           111.19           estimate D2E/DX2                !
 ! A133  A(71,33,72)           105.6701         estimate D2E/DX2                !
 ! A134  A(33,34,35)           117.081          estimate D2E/DX2                !
 ! A135  A(33,34,73)           108.4318         estimate D2E/DX2                !
 ! A136  A(33,34,74)           108.4038         estimate D2E/DX2                !
 ! A137  A(35,34,73)           107.1477         estimate D2E/DX2                !
 ! A138  A(35,34,74)           109.5009         estimate D2E/DX2                !
 ! A139  A(73,34,74)           105.6874         estimate D2E/DX2                !
 ! A140  A(34,35,36)           114.1557         estimate D2E/DX2                !
 ! A141  A(34,35,75)           110.1689         estimate D2E/DX2                !
 ! A142  A(34,35,76)           108.1448         estimate D2E/DX2                !
 ! A143  A(36,35,75)           108.1361         estimate D2E/DX2                !
 ! A144  A(36,35,76)           109.1109         estimate D2E/DX2                !
 ! A145  A(75,35,76)           106.8785         estimate D2E/DX2                !
 ! A146  A(35,36,37)           110.4431         estimate D2E/DX2                !
 ! A147  A(35,36,77)           110.5959         estimate D2E/DX2                !
 ! A148  A(35,36,78)           111.7688         estimate D2E/DX2                !
 ! A149  A(37,36,77)           107.3575         estimate D2E/DX2                !
 ! A150  A(37,36,78)           107.6392         estimate D2E/DX2                !
 ! A151  A(77,36,78)           108.8864         estimate D2E/DX2                !
 ! A152  A(36,37,79)           112.3195         estimate D2E/DX2                !
 ! A153  A(36,37,80)           112.3694         estimate D2E/DX2                !
 ! A154  A(36,37,81)           112.7464         estimate D2E/DX2                !
 ! A155  A(79,37,80)           103.0468         estimate D2E/DX2                !
 ! A156  A(79,37,81)           105.8985         estimate D2E/DX2                !
 ! A157  A(80,37,81)           109.851          estimate D2E/DX2                !
 ! A158  A(25,38,82)           108.8468         estimate D2E/DX2                !
 ! A159  A(24,39,83)           107.0154         estimate D2E/DX2                !
 ! A160  A(16,40,84)           106.1625         estimate D2E/DX2                !
 ! D1    D(6,1,2,3)            -49.3792         estimate D2E/DX2                !
 ! D2    D(6,1,2,12)          -165.0349         estimate D2E/DX2                !
 ! D3    D(6,1,2,41)            74.2135         estimate D2E/DX2                !
 ! D4    D(2,1,6,5)             53.6927         estimate D2E/DX2                !
 ! D5    D(2,1,6,7)           -177.7438         estimate D2E/DX2                !
 ! D6    D(2,1,6,45)           -62.617          estimate D2E/DX2                !
 ! D7    D(1,2,3,4)             47.9597         estimate D2E/DX2                !
 ! D8    D(1,2,3,11)           168.8704         estimate D2E/DX2                !
 ! D9    D(1,2,3,42)           -69.9461         estimate D2E/DX2                !
 ! D10   D(12,2,3,4)           162.6751         estimate D2E/DX2                !
 ! D11   D(12,2,3,11)          -76.4141         estimate D2E/DX2                !
 ! D12   D(12,2,3,42)           44.7694         estimate D2E/DX2                !
 ! D13   D(41,2,3,4)           -75.3382         estimate D2E/DX2                !
 ! D14   D(41,2,3,11)           45.5725         estimate D2E/DX2                !
 ! D15   D(41,2,3,42)          166.756          estimate D2E/DX2                !
 ! D16   D(1,2,12,13)         -107.4324         estimate D2E/DX2                !
 ! D17   D(3,2,12,13)          133.3081         estimate D2E/DX2                !
 ! D18   D(41,2,12,13)          12.1293         estimate D2E/DX2                !
 ! D19   D(2,3,4,5)            -52.7904         estimate D2E/DX2                !
 ! D20   D(2,3,4,10)          -170.7519         estimate D2E/DX2                !
 ! D21   D(2,3,4,43)            66.9482         estimate D2E/DX2                !
 ! D22   D(11,3,4,5)          -175.272          estimate D2E/DX2                !
 ! D23   D(11,3,4,10)           66.7664         estimate D2E/DX2                !
 ! D24   D(11,3,4,43)          -55.5334         estimate D2E/DX2                !
 ! D25   D(42,3,4,5)            63.8882         estimate D2E/DX2                !
 ! D26   D(42,3,4,10)          -54.0733         estimate D2E/DX2                !
 ! D27   D(42,3,4,43)         -176.3731         estimate D2E/DX2                !
 ! D28   D(2,3,11,51)           46.2077         estimate D2E/DX2                !
 ! D29   D(4,3,11,51)          169.4674         estimate D2E/DX2                !
 ! D30   D(42,3,11,51)         -71.7676         estimate D2E/DX2                !
 ! D31   D(3,4,5,6)             55.5804         estimate D2E/DX2                !
 ! D32   D(3,4,5,9)            -68.1054         estimate D2E/DX2                !
 ! D33   D(3,4,5,44)           172.674          estimate D2E/DX2                !
 ! D34   D(10,4,5,6)           176.2038         estimate D2E/DX2                !
 ! D35   D(10,4,5,9)            52.5181         estimate D2E/DX2                !
 ! D36   D(10,4,5,44)          -66.7026         estimate D2E/DX2                !
 ! D37   D(43,4,5,6)           -64.1875         estimate D2E/DX2                !
 ! D38   D(43,4,5,9)           172.1268         estimate D2E/DX2                !
 ! D39   D(43,4,5,44)           52.9062         estimate D2E/DX2                !
 ! D40   D(3,4,10,50)          -49.8404         estimate D2E/DX2                !
 ! D41   D(5,4,10,50)         -169.982          estimate D2E/DX2                !
 ! D42   D(43,4,10,50)          71.5051         estimate D2E/DX2                !
 ! D43   D(4,5,6,1)            -55.0705         estimate D2E/DX2                !
 ! D44   D(4,5,6,7)           -178.3655         estimate D2E/DX2                !
 ! D45   D(4,5,6,45)            64.0563         estimate D2E/DX2                !
 ! D46   D(9,5,6,1)             66.8281         estimate D2E/DX2                !
 ! D47   D(9,5,6,7)            -56.4669         estimate D2E/DX2                !
 ! D48   D(9,5,6,45)          -174.0451         estimate D2E/DX2                !
 ! D49   D(44,5,6,1)          -172.9153         estimate D2E/DX2                !
 ! D50   D(44,5,6,7)            63.7897         estimate D2E/DX2                !
 ! D51   D(44,5,6,45)          -53.7885         estimate D2E/DX2                !
 ! D52   D(4,5,9,49)           -43.6095         estimate D2E/DX2                !
 ! D53   D(6,5,9,49)          -165.3354         estimate D2E/DX2                !
 ! D54   D(44,5,9,49)           75.347          estimate D2E/DX2                !
 ! D55   D(1,6,7,8)            -43.293          estimate D2E/DX2                !
 ! D56   D(1,6,7,46)          -163.6903         estimate D2E/DX2                !
 ! D57   D(1,6,7,47)            79.5177         estimate D2E/DX2                !
 ! D58   D(5,6,7,8)             82.5381         estimate D2E/DX2                !
 ! D59   D(5,6,7,46)           -37.8591         estimate D2E/DX2                !
 ! D60   D(5,6,7,47)          -154.6512         estimate D2E/DX2                !
 ! D61   D(45,6,7,8)          -160.6376         estimate D2E/DX2                !
 ! D62   D(45,6,7,46)           78.9652         estimate D2E/DX2                !
 ! D63   D(45,6,7,47)          -37.8268         estimate D2E/DX2                !
 ! D64   D(6,7,8,48)            88.06           estimate D2E/DX2                !
 ! D65   D(46,7,8,48)         -151.0002         estimate D2E/DX2                !
 ! D66   D(47,7,8,48)          -34.0393         estimate D2E/DX2                !
 ! D67   D(2,12,13,14)        -120.1472         estimate D2E/DX2                !
 ! D68   D(2,12,13,19)         122.83           estimate D2E/DX2                !
 ! D69   D(2,12,13,52)           0.4435         estimate D2E/DX2                !
 ! D70   D(12,13,14,15)         60.9248         estimate D2E/DX2                !
 ! D71   D(12,13,14,16)        -59.3587         estimate D2E/DX2                !
 ! D72   D(12,13,14,53)       -178.9458         estimate D2E/DX2                !
 ! D73   D(19,13,14,15)        179.215          estimate D2E/DX2                !
 ! D74   D(19,13,14,16)         58.9315         estimate D2E/DX2                !
 ! D75   D(19,13,14,53)        -60.6557         estimate D2E/DX2                !
 ! D76   D(52,13,14,15)        -59.8262         estimate D2E/DX2                !
 ! D77   D(52,13,14,16)        179.8902         estimate D2E/DX2                !
 ! D78   D(52,13,14,53)         60.3031         estimate D2E/DX2                !
 ! D79   D(12,13,19,18)         55.7523         estimate D2E/DX2                !
 ! D80   D(12,13,19,20)        -65.6276         estimate D2E/DX2                !
 ! D81   D(12,13,19,57)        176.1092         estimate D2E/DX2                !
 ! D82   D(14,13,19,18)        -60.7725         estimate D2E/DX2                !
 ! D83   D(14,13,19,20)        177.8476         estimate D2E/DX2                !
 ! D84   D(14,13,19,57)         59.5844         estimate D2E/DX2                !
 ! D85   D(52,13,19,18)        178.2788         estimate D2E/DX2                !
 ! D86   D(52,13,19,20)         56.8989         estimate D2E/DX2                !
 ! D87   D(52,13,19,57)        -61.3643         estimate D2E/DX2                !
 ! D88   D(13,14,15,54)       -170.9924         estimate D2E/DX2                !
 ! D89   D(16,14,15,54)        -51.4628         estimate D2E/DX2                !
 ! D90   D(53,14,15,54)         69.5266         estimate D2E/DX2                !
 ! D91   D(13,14,16,17)        -53.4807         estimate D2E/DX2                !
 ! D92   D(13,14,16,40)       -176.3754         estimate D2E/DX2                !
 ! D93   D(13,14,16,55)         65.2333         estimate D2E/DX2                !
 ! D94   D(15,14,16,17)       -173.3068         estimate D2E/DX2                !
 ! D95   D(15,14,16,40)         63.7985         estimate D2E/DX2                !
 ! D96   D(15,14,16,55)        -54.5928         estimate D2E/DX2                !
 ! D97   D(53,14,16,17)         65.5789         estimate D2E/DX2                !
 ! D98   D(53,14,16,40)        -57.3157         estimate D2E/DX2                !
 ! D99   D(53,14,16,55)       -175.7071         estimate D2E/DX2                !
 ! D100  D(14,16,17,18)         47.9557         estimate D2E/DX2                !
 ! D101  D(14,16,17,22)        169.1751         estimate D2E/DX2                !
 ! D102  D(14,16,17,56)        -74.4157         estimate D2E/DX2                !
 ! D103  D(40,16,17,18)        168.9094         estimate D2E/DX2                !
 ! D104  D(40,16,17,22)        -69.8713         estimate D2E/DX2                !
 ! D105  D(40,16,17,56)         46.5379         estimate D2E/DX2                !
 ! D106  D(55,16,17,18)        -69.3643         estimate D2E/DX2                !
 ! D107  D(55,16,17,22)         51.855          estimate D2E/DX2                !
 ! D108  D(55,16,17,56)        168.2642         estimate D2E/DX2                !
 ! D109  D(14,16,40,84)       -156.4791         estimate D2E/DX2                !
 ! D110  D(17,16,40,84)         80.1789         estimate D2E/DX2                !
 ! D111  D(55,16,40,84)        -40.6267         estimate D2E/DX2                !
 ! D112  D(16,17,18,19)        -51.0137         estimate D2E/DX2                !
 ! D113  D(22,17,18,19)       -175.4311         estimate D2E/DX2                !
 ! D114  D(56,17,18,19)         70.6402         estimate D2E/DX2                !
 ! D115  D(16,17,22,23)        -58.2661         estimate D2E/DX2                !
 ! D116  D(18,17,22,23)         65.5464         estimate D2E/DX2                !
 ! D117  D(56,17,22,23)       -177.0317         estimate D2E/DX2                !
 ! D118  D(17,18,19,13)         58.1165         estimate D2E/DX2                !
 ! D119  D(17,18,19,20)       -175.5013         estimate D2E/DX2                !
 ! D120  D(17,18,19,57)        -60.0007         estimate D2E/DX2                !
 ! D121  D(13,19,20,21)         70.848          estimate D2E/DX2                !
 ! D122  D(13,19,20,58)       -170.813          estimate D2E/DX2                !
 ! D123  D(13,19,20,59)        -53.8843         estimate D2E/DX2                !
 ! D124  D(18,19,20,21)        -52.3701         estimate D2E/DX2                !
 ! D125  D(18,19,20,58)         65.9688         estimate D2E/DX2                !
 ! D126  D(18,19,20,59)       -177.1025         estimate D2E/DX2                !
 ! D127  D(57,19,20,21)       -170.6252         estimate D2E/DX2                !
 ! D128  D(57,19,20,58)        -52.2862         estimate D2E/DX2                !
 ! D129  D(57,19,20,59)         64.6425         estimate D2E/DX2                !
 ! D130  D(19,20,21,60)        -65.2396         estimate D2E/DX2                !
 ! D131  D(58,20,21,60)        175.3338         estimate D2E/DX2                !
 ! D132  D(59,20,21,60)         58.4045         estimate D2E/DX2                !
 ! D133  D(17,22,23,24)        119.1043         estimate D2E/DX2                !
 ! D134  D(17,22,23,28)       -121.8867         estimate D2E/DX2                !
 ! D135  D(17,22,23,61)         -2.9481         estimate D2E/DX2                !
 ! D136  D(22,23,24,25)        174.5002         estimate D2E/DX2                !
 ! D137  D(22,23,24,39)        -64.0402         estimate D2E/DX2                !
 ! D138  D(22,23,24,62)         55.6925         estimate D2E/DX2                !
 ! D139  D(28,23,24,25)         54.9044         estimate D2E/DX2                !
 ! D140  D(28,23,24,39)        176.364          estimate D2E/DX2                !
 ! D141  D(28,23,24,62)        -63.9033         estimate D2E/DX2                !
 ! D142  D(61,23,24,25)        -62.9628         estimate D2E/DX2                !
 ! D143  D(61,23,24,39)         58.4968         estimate D2E/DX2                !
 ! D144  D(61,23,24,62)        178.2295         estimate D2E/DX2                !
 ! D145  D(22,23,28,27)       -175.9379         estimate D2E/DX2                !
 ! D146  D(22,23,28,29)         65.4488         estimate D2E/DX2                !
 ! D147  D(22,23,28,65)        -55.064          estimate D2E/DX2                !
 ! D148  D(24,23,28,27)        -56.5261         estimate D2E/DX2                !
 ! D149  D(24,23,28,29)       -175.1393         estimate D2E/DX2                !
 ! D150  D(24,23,28,65)         64.3478         estimate D2E/DX2                !
 ! D151  D(61,23,28,27)         63.01           estimate D2E/DX2                !
 ! D152  D(61,23,28,29)        -55.6032         estimate D2E/DX2                !
 ! D153  D(61,23,28,65)       -176.1161         estimate D2E/DX2                !
 ! D154  D(23,24,25,26)        -54.6019         estimate D2E/DX2                !
 ! D155  D(23,24,25,38)       -177.2559         estimate D2E/DX2                !
 ! D156  D(23,24,25,63)         62.8352         estimate D2E/DX2                !
 ! D157  D(39,24,25,26)       -176.4728         estimate D2E/DX2                !
 ! D158  D(39,24,25,38)         60.8732         estimate D2E/DX2                !
 ! D159  D(39,24,25,63)        -59.0357         estimate D2E/DX2                !
 ! D160  D(62,24,25,26)         63.6943         estimate D2E/DX2                !
 ! D161  D(62,24,25,38)        -58.9597         estimate D2E/DX2                !
 ! D162  D(62,24,25,63)       -178.8686         estimate D2E/DX2                !
 ! D163  D(23,24,39,83)       -171.4339         estimate D2E/DX2                !
 ! D164  D(25,24,39,83)        -49.6206         estimate D2E/DX2                !
 ! D165  D(62,24,39,83)         69.7744         estimate D2E/DX2                !
 ! D166  D(24,25,26,27)         54.7162         estimate D2E/DX2                !
 ! D167  D(24,25,26,31)        171.6965         estimate D2E/DX2                !
 ! D168  D(24,25,26,64)        -66.4895         estimate D2E/DX2                !
 ! D169  D(38,25,26,27)        174.0724         estimate D2E/DX2                !
 ! D170  D(38,25,26,31)        -68.9473         estimate D2E/DX2                !
 ! D171  D(38,25,26,64)         52.8667         estimate D2E/DX2                !
 ! D172  D(63,25,26,27)        -63.5778         estimate D2E/DX2                !
 ! D173  D(63,25,26,31)         53.4025         estimate D2E/DX2                !
 ! D174  D(63,25,26,64)        175.2165         estimate D2E/DX2                !
 ! D175  D(24,25,38,82)       -176.3068         estimate D2E/DX2                !
 ! D176  D(26,25,38,82)         62.1944         estimate D2E/DX2                !
 ! D177  D(63,25,38,82)        -57.9679         estimate D2E/DX2                !
 ! D178  D(25,26,27,28)        -59.52           estimate D2E/DX2                !
 ! D179  D(31,26,27,28)       -176.3807         estimate D2E/DX2                !
 ! D180  D(64,26,27,28)         61.8796         estimate D2E/DX2                !
 ! D181  D(25,26,31,32)        160.685          estimate D2E/DX2                !
 ! D182  D(27,26,31,32)        -81.064          estimate D2E/DX2                !
 ! D183  D(64,26,31,32)         39.6735         estimate D2E/DX2                !
 ! D184  D(26,27,28,23)         60.9933         estimate D2E/DX2                !
 ! D185  D(26,27,28,29)       -175.3726         estimate D2E/DX2                !
 ! D186  D(26,27,28,65)        -58.5923         estimate D2E/DX2                !
 ! D187  D(23,28,29,30)         65.4395         estimate D2E/DX2                !
 ! D188  D(23,28,29,66)       -175.2235         estimate D2E/DX2                !
 ! D189  D(23,28,29,67)        -57.1287         estimate D2E/DX2                !
 ! D190  D(27,28,29,30)        -55.4202         estimate D2E/DX2                !
 ! D191  D(27,28,29,66)         63.9167         estimate D2E/DX2                !
 ! D192  D(27,28,29,67)       -177.9885         estimate D2E/DX2                !
 ! D193  D(65,28,29,30)       -173.8544         estimate D2E/DX2                !
 ! D194  D(65,28,29,66)        -54.5175         estimate D2E/DX2                !
 ! D195  D(65,28,29,67)         63.5773         estimate D2E/DX2                !
 ! D196  D(28,29,30,68)       -118.7363         estimate D2E/DX2                !
 ! D197  D(66,29,30,68)        122.3674         estimate D2E/DX2                !
 ! D198  D(67,29,30,68)          2.9085         estimate D2E/DX2                !
 ! D199  D(26,31,32,33)        150.3217         estimate D2E/DX2                !
 ! D200  D(26,31,32,69)         28.6053         estimate D2E/DX2                !
 ! D201  D(26,31,32,70)        -89.1416         estimate D2E/DX2                !
 ! D202  D(31,32,33,34)        -94.4375         estimate D2E/DX2                !
 ! D203  D(31,32,33,71)        144.3233         estimate D2E/DX2                !
 ! D204  D(31,32,33,72)         30.4319         estimate D2E/DX2                !
 ! D205  D(69,32,33,34)         26.4426         estimate D2E/DX2                !
 ! D206  D(69,32,33,71)        -94.7966         estimate D2E/DX2                !
 ! D207  D(69,32,33,72)        151.3119         estimate D2E/DX2                !
 ! D208  D(70,32,33,34)        146.706          estimate D2E/DX2                !
 ! D209  D(70,32,33,71)         25.4668         estimate D2E/DX2                !
 ! D210  D(70,32,33,72)        -88.4246         estimate D2E/DX2                !
 ! D211  D(32,33,34,35)         49.1564         estimate D2E/DX2                !
 ! D212  D(32,33,34,73)        -72.139          estimate D2E/DX2                !
 ! D213  D(32,33,34,74)        173.5769         estimate D2E/DX2                !
 ! D214  D(71,33,34,35)        170.9882         estimate D2E/DX2                !
 ! D215  D(71,33,34,73)         49.6927         estimate D2E/DX2                !
 ! D216  D(71,33,34,74)        -64.5913         estimate D2E/DX2                !
 ! D217  D(72,33,34,35)        -73.7291         estimate D2E/DX2                !
 ! D218  D(72,33,34,73)        164.9755         estimate D2E/DX2                !
 ! D219  D(72,33,34,74)         50.6915         estimate D2E/DX2                !
 ! D220  D(33,34,35,36)         59.84           estimate D2E/DX2                !
 ! D221  D(33,34,35,75)        -62.0417         estimate D2E/DX2                !
 ! D222  D(33,34,35,76)       -178.5207         estimate D2E/DX2                !
 ! D223  D(73,34,35,36)       -178.1956         estimate D2E/DX2                !
 ! D224  D(73,34,35,75)         59.9227         estimate D2E/DX2                !
 ! D225  D(73,34,35,76)        -56.5563         estimate D2E/DX2                !
 ! D226  D(74,34,35,36)        -64.025          estimate D2E/DX2                !
 ! D227  D(74,34,35,75)        174.0934         estimate D2E/DX2                !
 ! D228  D(74,34,35,76)         57.6144         estimate D2E/DX2                !
 ! D229  D(34,35,36,37)        177.2214         estimate D2E/DX2                !
 ! D230  D(34,35,36,77)        -64.08           estimate D2E/DX2                !
 ! D231  D(34,35,36,78)         57.4146         estimate D2E/DX2                !
 ! D232  D(75,35,36,37)        -59.7859         estimate D2E/DX2                !
 ! D233  D(75,35,36,77)         58.9127         estimate D2E/DX2                !
 ! D234  D(75,35,36,78)       -179.5928         estimate D2E/DX2                !
 ! D235  D(76,35,36,37)         56.1162         estimate D2E/DX2                !
 ! D236  D(76,35,36,77)        174.8148         estimate D2E/DX2                !
 ! D237  D(76,35,36,78)        -63.6907         estimate D2E/DX2                !
 ! D238  D(35,36,37,79)        -62.6009         estimate D2E/DX2                !
 ! D239  D(35,36,37,80)       -178.2487         estimate D2E/DX2                !
 ! D240  D(35,36,37,81)         56.9508         estimate D2E/DX2                !
 ! D241  D(77,36,37,79)        176.7459         estimate D2E/DX2                !
 ! D242  D(77,36,37,80)         61.0981         estimate D2E/DX2                !
 ! D243  D(77,36,37,81)        -63.7024         estimate D2E/DX2                !
 ! D244  D(78,36,37,79)         59.6644         estimate D2E/DX2                !
 ! D245  D(78,36,37,80)        -55.9833         estimate D2E/DX2                !
 ! D246  D(78,36,37,81)        179.2162         estimate D2E/DX2                !
 --------------------------------------------------------------------------------
 Trust Radius=3.00D-01 FncErr=1.00D-07 GrdErr=1.00D-06
 Number of steps in this run=    504 maximum allowed number of steps=    504.
 GradGradGradGradGradGradGradGradGradGradGradGradGradGradGradGradGradGrad

 Leave Link  103 at Tue Mar 22 18:28:03 2016, MaxMem= 10737418240 cpu:         0.4
 (Enter /share/apps//g09/l202.exe)
 Stoichiometry    C23H44NO16(1+)
 Framework group  C1[X(C23H44NO16)]
 Deg. of freedom   246
 Full point group                 C1      NOp   1
 Largest Abelian subgroup         C1      NOp   1
 Largest concise Abelian subgroup C1      NOp   1
                         Standard orientation:                         
 ---------------------------------------------------------------------
 Center     Atomic      Atomic             Coordinates (Angstroms)
 Number     Number       Type             X           Y           Z
 ---------------------------------------------------------------------
      1          8           0       -2.489890    1.892686   -0.501609
      2          6           0       -2.992841    0.927210    0.404471
      3          6           0       -2.484584    1.151606    1.817916
      4          6           0       -2.625672    2.594469    2.251940
      5          6           0       -1.983163    3.517141    1.229235
      6          6           0       -2.592354    3.252912   -0.134761
      7          6           0       -2.034078    4.070459   -1.300626
      8          8           0       -0.843358    3.549590   -1.849892
      9          8           0       -0.576532    3.332916    1.241438
     10          8           0       -1.962712    2.821558    3.472106
     11          8           0       -3.180921    0.354402    2.728826
     12          8           0       -2.470253   -0.272664   -0.019329
     13          6           0       -3.268899   -1.251371   -0.656126
     14          6           0       -3.205462   -2.502744    0.195412
     15          8           0       -3.721652   -2.221669    1.478287
     16          6           0       -1.762416   -2.949375    0.302066
     17          6           0       -1.107457   -3.108646   -1.071580
     18          8           0       -1.345953   -1.991771   -1.902415
     19          6           0       -2.686081   -1.585354   -2.026899
     20          6           0       -2.712473   -0.454630   -3.043819
     21          8           0       -1.807166    0.591398   -2.765583
     22          8           0        0.268208   -3.282198   -0.998029
     23          6           0        1.017046   -2.263976   -0.361621
     24          6           0        1.736300   -2.846743    0.840752
     25          6           0        2.649831   -1.811090    1.459525
     26          6           0        3.602423   -1.252393    0.421214
     27          8           0        2.872601   -0.756381   -0.674856
     28          6           0        2.060151   -1.708719   -1.334763
     29          6           0        1.472416   -0.992255   -2.528140
     30          8           0        0.790179    0.178463   -2.132854
     31          8           0        4.269180   -0.193887    0.995580
     32          6           0        5.489381    0.198935    0.363867
     33          6           0        5.697379    1.686313    0.583793
     34          6           0        5.193688    2.600180   -0.533559
     35          6           0        3.774140    2.365138   -1.035032
     36          6           0        2.709152    2.516642    0.028096
     37          7           0        1.361004    2.337114   -0.560472
     38          8           0        3.321793   -2.441304    2.518305
     39          8           0        0.804627   -3.295724    1.802198
     40          8           0       -1.735220   -4.149198    1.020427
     41          1           0       -4.092432    0.926010    0.383742
     42          1           0       -1.414647    0.901922    1.800700
     43          1           0       -3.691948    2.841268    2.337202
     44          1           0       -2.212539    4.555022    1.498164
     45          1           0       -3.651524    3.533752   -0.035320
     46          1           0       -1.826125    5.082986   -0.952169
     47          1           0       -2.800935    4.139193   -2.075500
     48          1           0       -1.072867    2.914354   -2.532121
     49          1           0       -0.342116    3.292761    2.177099
     50          1           0       -2.238173    2.144511    4.095894
     51          1           0       -3.247553   -0.551996    2.386380
     52          1           0       -4.303211   -0.905305   -0.752805
     53          1           0       -3.802157   -3.289143   -0.283965
     54          1           0       -3.532507   -2.991234    2.025008
     55          1           0       -1.237014   -2.165770    0.852596
     56          1           0       -1.485158   -4.022977   -1.544799
     57          1           0       -3.300273   -2.397544   -2.447367
     58          1           0       -2.426845   -0.859489   -4.014450
     59          1           0       -3.736956   -0.075656   -3.129466
     60          1           0       -2.073791    1.028849   -1.939566
     61          1           0        0.374130   -1.434593   -0.054780
     62          1           0        2.344093   -3.693869    0.494617
     63          1           0        2.036758   -0.974115    1.823091
     64          1           0        4.301000   -2.035466    0.083909
     65          1           0        2.669874   -2.545532   -1.705403
     66          1           0        2.292840   -0.714262   -3.195059
     67          1           0        0.804644   -1.668725   -3.059650
     68          1           0       -0.154951    0.129854   -2.373628
     69          1           0        5.445816   -0.038857   -0.703192
     70          1           0        6.304743   -0.378455    0.808069
     71          1           0        6.764990    1.876082    0.709917
     72          1           0        5.236716    1.942471    1.541710
     73          1           0        5.860631    2.495022   -1.393053
     74          1           0        5.297373    3.638052   -0.203966
     75          1           0        3.686994    1.364606   -1.463212
     76          1           0        3.576392    3.075601   -1.844337
     77          1           0        2.829419    1.759735    0.801227
     78          1           0        2.738448    3.503734    0.492527
     79          1           0        1.147130    3.045860   -1.262043
     80          1           0        0.609864    2.463038    0.133986
     81          1           0        1.249083    1.414161   -1.041814
     82          1           0        3.867376   -1.793304    2.968534
     83          1           0        1.303640   -3.526644    2.591268
     84          1           0       -0.847273   -4.217688    1.396341
 ---------------------------------------------------------------------
 Rotational constants (GHZ):      0.1052844      0.0833130      0.0648336
 Leave Link  202 at Tue Mar 22 18:28:03 2016, MaxMem= 10737418240 cpu:         2.0
 (Enter /share/apps//g09/l301.exe)
 Standard basis: 6-311+G(d,p) (5D, 7F)
 Ernie: Thresh=  0.10000D-02 Tol=  0.10000D-05 Strict=F.
 There are  1184 symmetry adapted cartesian basis functions of A   symmetry.
 There are  1144 symmetry adapted basis functions of A   symmetry.
  1144 basis functions,  1792 primitive gaussians,  1184 cartesian basis functions
   158 alpha electrons      158 beta electrons
       nuclear repulsion energy      6032.2260905842 Hartrees.
 IExCor= 1009 DFT=T Ex+Corr=PBE1PBE ExCW=0 ScaHFX=  0.250000
 ScaDFX=  0.750000  0.750000  1.000000  1.000000 ScalE2=  1.000000  1.000000
 IRadAn=      0 IRanWt=     -1 IRanGd=            0 ICorTp=0 IEmpDi=131
 NAtoms=   84 NActive=   84 NUniq=   84 SFac= 1.00D+00 NAtFMM=   60 NAOKFM=T Big=T
 Integral buffers will be    131072 words long.
 Raffenetti 2 integral format.
 Two-electron integral symmetry is turned on.
 R6Disp:  Grimme-D3 Dispersion energy=       -0.0857051995 Hartrees.
 Nuclear repulsion after empirical dispersion term =     6032.1403853847 Hartrees.
 Leave Link  301 at Tue Mar 22 18:28:04 2016, MaxMem= 10737418240 cpu:         1.6
 (Enter /share/apps//g09/l302.exe)
 NPDir=0 NMtPBC=     1 NCelOv=     1 NCel=       1 NClECP=     1 NCelD=      1
         NCelK=      1 NCelE2=     1 NClLst=     1 CellRange=     0.0.
 One-electron integrals computed using PRISM.
 NBasis=  1144 RedAO= T EigKep=  1.50D-06  NBF=  1144
 NBsUse=  1144 1.00D-06 EigRej= -1.00D+00 NBFU=  1144
 Precomputing XC quadrature grid using
 IXCGrd= 4 IRadAn=           0 IRanWt=          -1 IRanGd=           0 AccXCQ= 0.00D+00.
 Generated NRdTot=       0 NPtTot=           0 NUsed=           0 NTot=          32
 NSgBfM=  1093  1096  1103  1103  1103 MxSgAt=    84 MxSgA2=    84.
 Leave Link  302 at Tue Mar 22 18:28:07 2016, MaxMem= 10737418240 cpu:        55.9
 (Enter /share/apps//g09/l303.exe)
 DipDrv:  MaxL=1.
 Leave Link  303 at Tue Mar 22 18:28:10 2016, MaxMem= 10737418240 cpu:        34.4
 (Enter /share/apps//g09/l401.exe)
 ExpMin= 4.38D-02 ExpMax= 8.59D+03 ExpMxC= 1.30D+03 IAcc=2 IRadAn=         4 AccDes= 0.00D+00
 Harris functional with IExCor= 1009 and IRadAn=       4 diagonalized for initial guess.
 HarFok:  IExCor= 1009 AccDes= 0.00D+00 IRadAn=         4 IDoV= 1 UseB2=F ITyADJ=14
 ICtDFT=  3500011 ScaDFX=  1.000000  1.000000  1.000000  1.000000
 FoFCou: FMM=F IPFlag=           0 FMFlag=      100000 FMFlg1=        2001
         NFxFlg=           0 DoJE=T BraDBF=F KetDBF=T FulRan=T
         wScrn=  0.000000 ICntrl=     500 IOpCl=  0 I1Cent=   200000004 NGrid=           0
         NMat0=    1 NMatS0=      1 NMatT0=    0 NMatD0=    1 NMtDS0=    0 NMtDT0=    0
 Petite list used in FoFCou.
 Harris En= -2159.74832770306    
 JPrj=0 DoOrth=F DoCkMO=F.
 Leave Link  401 at Tue Mar 22 18:28:16 2016, MaxMem= 10737418240 cpu:       117.6
 (Enter /share/apps//g09/l502.exe)
 Closed shell SCF:
 Using DIIS extrapolation, IDIIS=  1040.
 Integral symmetry usage will be decided dynamically.
 IVT=     4256630 IEndB=     4256630 NGot= 10737418240 MDV= 10734581291
 LenX= 10734581291 LenY= 10733178251
 Requested convergence on RMS density matrix=1.00D-08 within 128 cycles.
 Requested convergence on MAX density matrix=1.00D-06.
 Requested convergence on             energy=1.00D-06.
 No special actions if energy rises.
 Fock matrices will be formed incrementally for  20 cycles.

 Cycle   1  Pass 1  IDiag  1:
 FoFJK:  IHMeth= 1 ICntrl=       0 DoSepK=F KAlg= 0 I1Cent=   0 FoldK=F
 IRaf= 800000000 NMat=   1 IRICut=       1 DoRegI=T DoRafI=F ISym2E= 0.
 FoFCou: FMM=T IPFlag=           0 FMFlag=      100000 FMFlg1=        2001
         NFxFlg=           0 DoJE=F BraDBF=F KetDBF=F FulRan=T
         wScrn=  0.000000 ICntrl=       0 IOpCl=  0 I1Cent=           0 NGrid=           0
         NMat0=    1 NMatS0=      1 NMatT0=    0 NMatD0=    1 NMtDS0=    0 NMtDT0=    0
 Symmetry not used in FoFCou.
 FMM levels:  10  Number of levels for PrismC:   9
 E= -2158.68462819456    
 DIIS: error= 1.32D-02 at cycle   1 NSaved=   1.
 NSaved= 1 IEnMin= 1 EnMin= -2158.68462819456     IErMin= 1 ErrMin= 1.32D-02
 ErrMax= 1.32D-02  0.00D+00 EMaxC= 1.00D-01 BMatC= 1.07D+00 BMatP= 1.07D+00
 IDIUse=3 WtCom= 8.68D-01 WtEn= 1.32D-01
 Coeff-Com:  0.100D+01
 Coeff-En:   0.100D+01
 Coeff:      0.100D+01
 Gap=     0.254 Goal=   None    Shift=    0.000
 GapD=    0.254 DampG=1.000 DampE=0.500 DampFc=0.5000 IDamp=-1.
 Damping current iteration by 5.00D-01
 RMSDP=9.70D-03 MaxDP=1.65D+00              OVMax= 1.38D-01

 Cycle   2  Pass 1  IDiag  1:
 RMSU=  4.84D-03    CP:  9.93D-01
 E= -2158.98589009667     Delta-E=       -0.301261902117 Rises=F Damp=T
 DIIS: error= 3.08D-03 at cycle   2 NSaved=   2.
 NSaved= 2 IEnMin= 2 EnMin= -2158.98589009667     IErMin= 2 ErrMin= 3.08D-03
 ErrMax= 3.08D-03  0.00D+00 EMaxC= 1.00D-01 BMatC= 7.98D-02 BMatP= 1.07D+00
 IDIUse=3 WtCom= 9.69D-01 WtEn= 3.08D-02
 Coeff-Com:  0.513D-01 0.949D+00
 Coeff-En:   0.144D+00 0.856D+00
 Coeff:      0.542D-01 0.946D+00
 Gap=     0.290 Goal=   None    Shift=    0.000
 RMSDP=4.45D-03 MaxDP=1.26D+00 DE=-3.01D-01 OVMax= 8.14D-02

 Cycle   3  Pass 1  IDiag  1:
 RMSU=  2.55D-03    CP:  9.03D-01  9.71D-01
 E= -2159.37173908820     Delta-E=       -0.385848991531 Rises=F Damp=F
 DIIS: error= 3.09D-03 at cycle   3 NSaved=   3.
 NSaved= 3 IEnMin= 3 EnMin= -2159.37173908820     IErMin= 2 ErrMin= 3.08D-03
 ErrMax= 3.09D-03  0.00D+00 EMaxC= 1.00D-01 BMatC= 4.24D-02 BMatP= 7.98D-02
 IDIUse=3 WtCom= 9.69D-01 WtEn= 3.09D-02
 Coeff-Com: -0.679D-01 0.402D+00 0.666D+00
 Coeff-En:   0.000D+00 0.000D+00 0.100D+01
 Coeff:     -0.658D-01 0.390D+00 0.676D+00
 Gap=     0.268 Goal=   None    Shift=    0.000
 RMSDP=1.48D-03 MaxDP=4.85D-01 DE=-3.86D-01 OVMax= 1.75D-02

 Cycle   4  Pass 1  IDiag  1:
 RMSU=  1.14D-03    CP:  9.21D-01  1.08D+00  8.82D-01
 E= -2159.39811845528     Delta-E=       -0.026379367081 Rises=F Damp=F
 DIIS: error= 1.11D-03 at cycle   4 NSaved=   4.
 NSaved= 4 IEnMin= 4 EnMin= -2159.39811845528     IErMin= 4 ErrMin= 1.11D-03
 ErrMax= 1.11D-03  0.00D+00 EMaxC= 1.00D-01 BMatC= 5.59D-03 BMatP= 4.24D-02
 IDIUse=3 WtCom= 9.89D-01 WtEn= 1.11D-02
 Coeff-Com: -0.358D-01 0.122D+00 0.341D+00 0.572D+00
 Coeff-En:   0.000D+00 0.000D+00 0.652D-01 0.935D+00
 Coeff:     -0.355D-01 0.121D+00 0.338D+00 0.576D+00
 Gap=     0.262 Goal=   None    Shift=    0.000
 RMSDP=1.10D-03 MaxDP=4.24D-01 DE=-2.64D-02 OVMax= 5.63D-03

 Cycle   5  Pass 1  IDiag  1:
 RMSU=  2.97D-04    CP:  8.98D-01  1.05D+00  8.81D-01  5.69D-01
 E= -2159.40279840447     Delta-E=       -0.004679949185 Rises=F Damp=F
 DIIS: error= 2.92D-04 at cycle   5 NSaved=   5.
 NSaved= 5 IEnMin= 5 EnMin= -2159.40279840447     IErMin= 5 ErrMin= 2.92D-04
 ErrMax= 2.92D-04  0.00D+00 EMaxC= 1.00D-01 BMatC= 2.43D-04 BMatP= 5.59D-03
 IDIUse=3 WtCom= 9.97D-01 WtEn= 2.92D-03
 Coeff-Com: -0.112D-01 0.253D-01 0.997D-01 0.246D+00 0.640D+00
 Coeff-En:   0.000D+00 0.000D+00 0.000D+00 0.000D+00 0.100D+01
 Coeff:     -0.112D-01 0.252D-01 0.994D-01 0.246D+00 0.641D+00
 Gap=     0.261 Goal=   None    Shift=    0.000
 RMSDP=1.23D-04 MaxDP=3.31D-02 DE=-4.68D-03 OVMax= 1.60D-03

 Cycle   6  Pass 1  IDiag  1:
 RMSU=  6.17D-05    CP:  9.00D-01  1.05D+00  8.93D-01  5.81D-01  7.97D-01
 E= -2159.40297443049     Delta-E=       -0.000176026017 Rises=F Damp=F
 DIIS: error= 5.47D-05 at cycle   6 NSaved=   6.
 NSaved= 6 IEnMin= 6 EnMin= -2159.40297443049     IErMin= 6 ErrMin= 5.47D-05
 ErrMax= 5.47D-05  0.00D+00 EMaxC= 1.00D-01 BMatC= 1.84D-05 BMatP= 2.43D-04
 IDIUse=1 WtCom= 1.00D+00 WtEn= 0.00D+00
 Coeff-Com: -0.366D-02 0.653D-02 0.320D-01 0.932D-01 0.313D+00 0.558D+00
 Coeff:     -0.366D-02 0.653D-02 0.320D-01 0.932D-01 0.313D+00 0.558D+00
 Gap=     0.261 Goal=   None    Shift=    0.000
 RMSDP=3.46D-05 MaxDP=1.23D-02 DE=-1.76D-04 OVMax= 4.15D-04

 Cycle   7  Pass 1  IDiag  1:
 RMSU=  1.58D-05    CP:  9.01D-01  1.05D+00  8.94D-01  5.96D-01  7.87D-01
                    CP:  7.77D-01
 E= -2159.40298750508     Delta-E=       -0.000013074594 Rises=F Damp=F
 DIIS: error= 2.16D-05 at cycle   7 NSaved=   7.
 NSaved= 7 IEnMin= 7 EnMin= -2159.40298750508     IErMin= 7 ErrMin= 2.16D-05
 ErrMax= 2.16D-05  0.00D+00 EMaxC= 1.00D-01 BMatC= 1.43D-06 BMatP= 1.84D-05
 IDIUse=1 WtCom= 1.00D+00 WtEn= 0.00D+00
 Coeff-Com: -0.957D-03 0.134D-02 0.859D-02 0.287D-01 0.109D+00 0.277D+00
 Coeff-Com:  0.576D+00
 Coeff:     -0.957D-03 0.134D-02 0.859D-02 0.287D-01 0.109D+00 0.277D+00
 Coeff:      0.576D+00
 Gap=     0.261 Goal=   None    Shift=    0.000
 RMSDP=9.70D-06 MaxDP=2.26D-03 DE=-1.31D-05 OVMax= 1.35D-04

 Cycle   8  Pass 1  IDiag  1:
 RMSU=  7.47D-06    CP:  9.01D-01  1.05D+00  8.93D-01  5.97D-01  7.94D-01
                    CP:  7.30D-01  7.99D-01
 E= -2159.40298844302     Delta-E=       -0.000000937942 Rises=F Damp=F
 DIIS: error= 6.32D-06 at cycle   8 NSaved=   8.
 NSaved= 8 IEnMin= 8 EnMin= -2159.40298844302     IErMin= 8 ErrMin= 6.32D-06
 ErrMax= 6.32D-06  0.00D+00 EMaxC= 1.00D-01 BMatC= 1.45D-07 BMatP= 1.43D-06
 IDIUse=1 WtCom= 1.00D+00 WtEn= 0.00D+00
 Coeff-Com:  0.167D-04-0.209D-03 0.982D-05 0.189D-02 0.108D-01 0.561D-01
 Coeff-Com:  0.278D+00 0.654D+00
 Coeff:      0.167D-04-0.209D-03 0.982D-05 0.189D-02 0.108D-01 0.561D-01
 Coeff:      0.278D+00 0.654D+00
 Gap=     0.261 Goal=   None    Shift=    0.000
 RMSDP=3.37D-06 MaxDP=5.15D-04 DE=-9.38D-07 OVMax= 3.61D-05

 Cycle   9  Pass 1  IDiag  1:
 RMSU=  2.24D-06    CP:  9.01D-01  1.05D+00  8.94D-01  5.97D-01  7.94D-01
                    CP:  7.50D-01  8.41D-01  8.44D-01
 E= -2159.40298855296     Delta-E=       -0.000000109933 Rises=F Damp=F
 DIIS: error= 1.08D-06 at cycle   9 NSaved=   9.
 NSaved= 9 IEnMin= 9 EnMin= -2159.40298855296     IErMin= 9 ErrMin= 1.08D-06
 ErrMax= 1.08D-06  0.00D+00 EMaxC= 1.00D-01 BMatC= 8.63D-09 BMatP= 1.45D-07
 IDIUse=1 WtCom= 1.00D+00 WtEn= 0.00D+00
 Coeff-Com:  0.620D-04-0.164D-03-0.523D-03-0.910D-03-0.221D-02 0.603D-02
 Coeff-Com:  0.824D-01 0.283D+00 0.632D+00
 Coeff:      0.620D-04-0.164D-03-0.523D-03-0.910D-03-0.221D-02 0.603D-02
 Coeff:      0.824D-01 0.283D+00 0.632D+00
 Gap=     0.261 Goal=   None    Shift=    0.000
 RMSDP=7.73D-07 MaxDP=3.12D-04 DE=-1.10D-07 OVMax= 7.97D-06

 Cycle  10  Pass 1  IDiag  1:
 RMSU=  4.38D-07    CP:  9.01D-01  1.05D+00  8.94D-01  5.97D-01  7.95D-01
                    CP:  7.53D-01  8.50D-01  8.49D-01  7.97D-01
 E= -2159.40298855928     Delta-E=       -0.000000006324 Rises=F Damp=F
 DIIS: error= 4.47D-07 at cycle  10 NSaved=  10.
 NSaved=10 IEnMin=10 EnMin= -2159.40298855928     IErMin=10 ErrMin= 4.47D-07
 ErrMax= 4.47D-07  0.00D+00 EMaxC= 1.00D-01 BMatC= 1.11D-09 BMatP= 8.63D-09
 IDIUse=1 WtCom= 1.00D+00 WtEn= 0.00D+00
 Coeff-Com:  0.262D-04-0.598D-04-0.253D-03-0.558D-03-0.185D-02-0.122D-02
 Coeff-Com:  0.192D-01 0.907D-01 0.323D+00 0.571D+00
 Coeff:      0.262D-04-0.598D-04-0.253D-03-0.558D-03-0.185D-02-0.122D-02
 Coeff:      0.192D-01 0.907D-01 0.323D+00 0.571D+00
 Gap=     0.261 Goal=   None    Shift=    0.000
 RMSDP=2.26D-07 MaxDP=6.59D-05 DE=-6.32D-09 OVMax= 2.81D-06

 Cycle  11  Pass 1  IDiag  1:
 RMSU=  1.27D-07    CP:  9.01D-01  1.05D+00  8.94D-01  5.97D-01  7.94D-01
                    CP:  7.52D-01  8.52D-01  8.62D-01  8.05D-01  7.20D-01
 E= -2159.40298856001     Delta-E=       -0.000000000732 Rises=F Damp=F
 DIIS: error= 1.54D-07 at cycle  11 NSaved=  11.
 NSaved=11 IEnMin=11 EnMin= -2159.40298856001     IErMin=11 ErrMin= 1.54D-07
 ErrMax= 1.54D-07  0.00D+00 EMaxC= 1.00D-01 BMatC= 6.58D-11 BMatP= 1.11D-09
 IDIUse=1 WtCom= 1.00D+00 WtEn= 0.00D+00
 Coeff-Com:  0.676D-05-0.145D-04-0.790D-04-0.184D-03-0.664D-03-0.893D-03
 Coeff-Com:  0.282D-02 0.202D-01 0.989D-01 0.259D+00 0.621D+00
 Coeff:      0.676D-05-0.145D-04-0.790D-04-0.184D-03-0.664D-03-0.893D-03
 Coeff:      0.282D-02 0.202D-01 0.989D-01 0.259D+00 0.621D+00
 Gap=     0.261 Goal=   None    Shift=    0.000
 RMSDP=7.52D-08 MaxDP=2.18D-05 DE=-7.32D-10 OVMax= 9.35D-07

 Cycle  12  Pass 1  IDiag  1:
 RMSU=  4.45D-08    CP:  9.01D-01  1.05D+00  8.94D-01  5.97D-01  7.94D-01
                    CP:  7.52D-01  8.52D-01  8.65D-01  8.13D-01  7.40D-01
                    CP:  7.44D-01
 E= -2159.40298856000     Delta-E=        0.000000000010 Rises=F Damp=F
 DIIS: error= 4.88D-08 at cycle  12 NSaved=  12.
 NSaved=12 IEnMin=11 EnMin= -2159.40298856001     IErMin=12 ErrMin= 4.88D-08
 ErrMax= 4.88D-08  0.00D+00 EMaxC= 1.00D-01 BMatC= 8.13D-12 BMatP= 6.58D-11
 IDIUse=1 WtCom= 1.00D+00 WtEn= 0.00D+00
 Coeff-Com:  0.291D-06-0.320D-06-0.114D-04-0.289D-04-0.121D-03-0.308D-03
 Coeff-Com: -0.841D-03-0.570D-03 0.122D-01 0.628D-01 0.307D+00 0.620D+00
 Coeff:      0.291D-06-0.320D-06-0.114D-04-0.289D-04-0.121D-03-0.308D-03
 Coeff:     -0.841D-03-0.570D-03 0.122D-01 0.628D-01 0.307D+00 0.620D+00
 Gap=     0.261 Goal=   None    Shift=    0.000
 RMSDP=2.15D-08 MaxDP=3.27D-06 DE= 1.00D-11 OVMax= 2.83D-07

 Cycle  13  Pass 1  IDiag  1:
 RMSU=  1.19D-08    CP:  9.01D-01  1.05D+00  8.94D-01  5.97D-01  7.94D-01
                    CP:  7.52D-01  8.52D-01  8.65D-01  8.17D-01  7.40D-01
                    CP:  7.65D-01  8.02D-01
 E= -2159.40298855983     Delta-E=        0.000000000175 Rises=F Damp=F
 DIIS: error= 1.06D-08 at cycle  13 NSaved=  13.
 NSaved=13 IEnMin=11 EnMin= -2159.40298856001     IErMin=13 ErrMin= 1.06D-08
 ErrMax= 1.06D-08  0.00D+00 EMaxC= 1.00D-01 BMatC= 5.38D-13 BMatP= 8.13D-12
 IDIUse=1 WtCom= 1.00D+00 WtEn= 0.00D+00
 Coeff-Com: -0.360D-06 0.886D-06 0.469D-06 0.679D-07-0.760D-05-0.706D-04
 Coeff-Com: -0.570D-03-0.175D-02-0.178D-02 0.968D-02 0.955D-01 0.283D+00
 Coeff-Com:  0.616D+00
 Coeff:     -0.360D-06 0.886D-06 0.469D-06 0.679D-07-0.760D-05-0.706D-04
 Coeff:     -0.570D-03-0.175D-02-0.178D-02 0.968D-02 0.955D-01 0.283D+00
 Coeff:      0.616D+00
 Gap=     0.261 Goal=   None    Shift=    0.000
 RMSDP=6.04D-09 MaxDP=1.86D-06 DE= 1.75D-10 OVMax= 7.41D-08

 Cycle  14  Pass 1  IDiag  1:
 RMSU=  3.33D-09    CP:  9.01D-01  1.05D+00  8.94D-01  5.97D-01  7.94D-01
[...]
 0.00000761,-0.00003141,0.00000601,-0.00000462,0.00002523,-0.00110694,0
 .00080242,0.00049547,-0.27483942,-0.25205025,-0.06662847,0.00039450,0.
 00054562,-0.00055115,0.00000964,0.00001669,0.00000131,-0.00001896,0.00
 000291,-0.00005434,0.00001773,-0.00000555,-0.00000398,0.00001218,-0.00
 000604,0.00000571,0.00000410,-0.00000194,-0.00000465,-0.00000235,-0.00
 000390,0.00000151,0.00000335,0.00000721,0.00000089,-0.00001483,-0.0000
 0714,-0.00001547,-0.00004282,0.00002693,-0.00003091,-0.00006681,0.0000
 4331,0.00002369,-0.00011577,-0.00009959,0.00005064,0.00000743,0.000001
 88,-0.00000508,-0.00004799,0.00002593,0.00002770,-0.00004984,-0.000089
 08,0.00008123,0.00006877,-0.00031595,-0.00002250,0.00003585,0.00002288
 ,-0.00004392,0.00000209,0.00001514,-0.00000747,-0.00000279,0.00000229,
 0.00000521,0.00000804,-0.00000052,-0.00000312,-0.00000980,-0.00003112,
 -0.00001732,0.00023331,0.00002945,0.00012916,0.00031726,0.00085077,0.0
 0161243,-0.00066652,0.00029764,-0.00050344,-0.00002282,0.00007527,0.00
 024564,0.00000152,-0.00001161,-0.00008035,-0.00000992,-0.00000033,0.00
 004240,0.00000488,-0.00000399,-0.00000907,-0.00003672,-0.00001961,-0.0
 0000144,-0.00000671,0.00000517,0.00001385,-0.00003004,-0.00000729,0.00
 003333,0.00001079,-0.00001607,0.00002518,0.00000951,0.00001115,-0.0000
 0854,-0.00000529,0.00000326,0.00000539,0.00000625,-0.00000568,0.000000
 40,-0.00000512,-0.00000440,-0.00001075,0.00000393,0.00000157,0.0000087
 6,-0.00000250,0.00001551,-0.00001409,0.00000562,-0.00000043,0.00000239
 ,-0.00001693,-0.00000653,-0.00000661,-0.00002720,-0.00000454,-0.000029
 16,-0.00002485,-0.00000554,-0.00002666,-0.00040316,-0.00006112,-0.0006
 1674,0.27479938,0.00007929,-0.00013918,0.00004718,-0.00018546,0.000244
 09,-0.00001268,0.00005998,-0.00000398,0.00001799,0.00003502,0.00011552
 ,0.00001381,0.00004458,0.00000949,-0.00003090,-0.00003514,0.00008813,-
 0.00002283,-0.00000783,0.00000072,0.00001472,0.00001080,-0.00003580,-0
 .00000206,-0.00006846,-0.00004594,0.00001267,-0.00011692,-0.00012016,-
 0.00001166,-0.00007503,-0.00014909,0.00000300,0.00019793,-0.00026812,0
 .00003303,-0.00005749,0.00011943,-0.00014225,-0.00005628,0.00021562,0.
 00021717,0.00010403,-0.00018008,-0.00011338,0.00037117,0.00017345,-0.0
 0029998,-0.00022068,-0.00010808,0.00000421,0.00036534,0.00008942,0.000
 07781,-0.00015143,-0.00004443,0.00010691,-0.00002504,0.00005187,-0.000
 06616,0.00007374,-0.00009230,0.00004765,0.00018311,0.00036406,-0.00024
 402,0.00117121,-0.00059276,0.00023309,-0.00569774,-0.00471007,-0.00337
 712,0.00248084,0.00363782,0.00344728,-0.00018879,0.00006841,0.00005384
 ,-0.00049086,-0.00081301,-0.00029482,-0.00023698,0.00089334,-0.0002753
 1,-0.00009983,-0.00003988,0.00000825,0.00014048,-0.00010241,0.00009108
 ,-0.00009311,-0.00042346,0.00005261,0.00006673,-0.00002243,0.00013887,
 -0.00001104,0.00000710,0.00003323,0.00002078,0.00000763,-0.00000023,-0
 .00002589,-0.00000002,0.00000246,0.00006938,0.00004179,-0.00000964,-0.
 00000435,-0.00008588,0.00001829,-0.00031049,-0.00090870,-0.00230913,-0
 .24527587,-0.23814942,-0.06744492,0.00031021,-0.00025749,0.00067710,0.
 00001131,-0.00001988,-0.00000237,0.00000874,0.00003018,0.00001938,-0.0
 0001232,-0.00001201,0.00000949,-0.00000460,-0.00000494,0.00000691,0.00
 000663,-0.00000871,-0.00000157,0.00000677,-0.00000299,0.00000569,-0.00
 000552,-0.00000246,-0.00000561,-0.00002093,0.00002837,-0.00001196,0.00
 005403,0.00001825,0.00001287,0.00007793,0.00002962,-0.00001274,-0.0000
 1253,0.00018504,-0.00003069,0.00004057,-0.00002066,0.00001499,0.000034
 33,0.00000472,-0.00004485,-0.00007680,0.00006870,0.00007178,-0.0002836
 0,-0.00003401,0.00010944,-0.00000438,0.00000924,0.00001023,0.00001312,
 -0.00000094,-0.00002160,-0.00000512,-0.00000554,0.00000371,0.00001604,
 -0.00000556,0.00000733,-0.00005148,0.00007858,0.00000582,0.00004758,0.
 00004694,-0.00001719,-0.00050027,-0.00011651,0.00060345,0.00002025,-0.
 00028920,0.00013460,0.00003937,-0.00002618,-0.00013489,0.00004218,-0.0
 0008819,0.00002500,0.00004731,0.00001355,0.00005107,-0.00003663,-0.000
 02373,-0.00002519,-0.00004184,-0.00000501,-0.00003548,-0.00000424,-0.0
 0001544,-0.00004006,-0.00000363,0.00001208,0.00001127,-0.00000155,-0.0
 0000078,0.00000044,0.00001219,-0.00001503,-0.00000164,-0.00000538,-0.0
 0000754,-0.00000609,-0.00000732,-0.00000357,0.00000268,0.00001271,0.00
 000453,-0.00000216,-0.00001064,-0.00000359,-0.00001013,0.00000716,0.00
 000708,0.00001240,0.00000019,-0.00001006,0.00000677,0.00001127,0.00001
 221,-0.00000428,0.00000780,0.00003372,0.00001156,-0.00003624,0.0001709
 1,-0.00004695,-0.00004984,-0.00051950,-0.00017081,0.25016840,0.2427462
 1,0.00001241,-0.00003622,-0.00004403,-0.00004454,0.00007499,0.00003939
 ,0.00002188,-0.00001740,0.00020621,0.00001759,0.00003710,-0.00000420,-
 0.00005997,-0.00001555,0.00006387,-0.00000529,0.00000899,-0.00000402,-
 0.00003352,0.00001818,0.00003684,0.00006163,-0.00000863,-0.00003820,0.
 00009051,-0.00000956,-0.00009807,-0.00001990,-0.00004263,-0.00005470,-
 0.00013634,-0.00003409,-0.00017288,0.00007148,-0.00006121,-0.00002252,
 -0.00003537,-0.00002345,-0.00002316,-0.00020487,0.00035315,0.00015343,
 0.00000091,-0.00022739,-0.00022183,0.00014378,-0.00027000,0.00004128,-
 0.00040416,-0.00027101,-0.00007739,0.00018311,0.00006219,-0.00002880,-
 0.00009262,-0.00002621,0.00005646,-0.00000331,-0.00001801,-0.00000583,
 0.00003825,0.00001176,-0.00001319,0.00076798,0.00076198,0.00061688,0.0
 0170000,-0.00013468,-0.00845781,-0.03324306,-0.03055859,-0.01408201,-0
 .00416145,-0.00131159,-0.00196918,-0.00073994,-0.00106182,-0.00080319,
 0.00089438,0.00102895,0.00049067,-0.00212329,-0.00204193,0.00054423,0.
 00037120,0.00003778,-0.00080550,-0.00000374,0.00016045,0.00007856,0.00
 030028,0.00002784,0.00104545,0.00014428,0.00000693,-0.00046189,-0.0000
 4681,0.00000671,0.00003768,-0.00003140,-0.00003123,-0.00001664,0.00001
 359,0.00001349,-0.00000429,-0.00009113,-0.00003893,0.00000189,0.000068
 25,0.00004072,-0.00003218,0.00054107,-0.00109096,0.00117726,-0.0309517
 7,-0.03605420,-0.05632327,0.00077556,0.00080310,-0.00173281,0.00001338
 ,0.00000397,-0.00000906,0.00001572,0.00000826,-0.00001752,0.00000619,-
 0.00000627,-0.00000344,0.00001085,-0.00000087,-0.00000891,0.00000571,0
 .00000314,-0.00000514,-0.00000110,-0.00000419,0.00000029,0.00000553,0.
 00000116,-0.00000793,-0.00001136,-0.00000306,0.00000131,-0.00002670,0.
 00001490,0.00004353,0.00003609,0.00000712,0.00003807,0.00008490,0.0000
 7407,0.00005635,0.00002254,-0.00000272,0.00000153,0.00011055,-0.000012
 82,-0.00006687,0.00009716,0.00015261,0.00009106,-0.00047197,0.00020064
 ,0.00000654,0.00000649,0.00005049,0.00003231,0.00000308,0.00000950,-0.
 00001157,-0.00000470,-0.00000080,0.00000011,0.00001142,-0.00000154,-0.
 00000054,-0.00002111,0.00001229,0.00001158,0.00015975,0.00029251,0.000
 17794,0.00044140,-0.00066694,0.00024254,0.00030220,0.00026145,-0.00003
 974,0.00004522,-0.00002460,0.00004912,0.00000770,0.00002048,-0.0000006
 2,-0.00022754,-0.00013382,-0.00009660,0.00006156,0.00002717,0.00001673
 ,-0.00004339,-0.00000185,0.00000483,-0.00001761,0.00001843,0.00007104,
 -0.00002012,-0.00000146,0.00001827,0.00002399,-0.00002006,0.00003691,-
 0.00000003,0.00002372,-0.00001504,0.00000248,0.00001395,0.00000347,0.0
 0003210,-0.00000608,0.00000908,-0.00003007,-0.00002277,-0.00002629,0.0
 0002973,0.00000077,0.00001513,-0.00005701,0.00003648,-0.00000307,0.000
 02666,0.00000232,0.00000958,-0.00004466,-0.00001142,0.00000826,-0.0000
 7793,0.00003850,0.00006168,-0.00004535,-0.00009763,0.00000724,0.000601
 93,0.00081484,0.00127973,0.06418444,0.06922750,0.07575988,0.00027689,-
 0.00018654,0.00028319,-0.00046308,0.00045898,-0.00021971,-0.00005102,-
 0.00000086,-0.00019567,-0.00000908,0.00013806,0.00001307,0.00006639,0.
 00001252,-0.00009492,-0.00012204,0.00016462,-0.00002884,0.00001086,-0.
 00004251,-0.00006034,-0.00001963,-0.00000954,0.00009066,-0.00007345,-0
 .00005037,0.00014147,-0.00002288,-0.00016655,0.00002225,0.00022052,-0.
 00027858,0.00019938,0.00094833,-0.00037015,0.00022013,-0.00122342,-0.0
 0032258,0.00110167,-0.00462828,0.00040692,-0.00460357,0.00128652,-0.00
 033904,-0.00038103,-0.03477334,-0.01767922,0.01023037,0.00079807,-0.00
 095844,-0.00215512,0.00082376,0.00061697,0.00129266,-0.00040623,-0.000
 12977,0.00030442,-0.00011256,0.00009011,-0.00017523,0.00006309,-0.0001
 3072,0.00022021,-0.00071736,-0.00097561,0.00102690,0.00071547,0.000839
 11,-0.00074583,0.00024286,0.00182657,0.00315148,0.00010946,-0.00038780
 ,-0.00090993,0.00052108,0.00049077,0.00041129,-0.00036221,-0.00036620,
 0.00007864,-0.00026756,0.00000745,-0.00012500,0.00021202,-0.00000788,-
 0.00014919,-0.00025308,-0.00004699,0.00020988,-0.00011581,0.00005577,-
 0.00043278,-0.00004656,0.00001994,0.00013670,0.00002361,-0.00000629,-0
 .00001392,0.00002028,0.00002415,0.00000278,-0.00001091,-0.00001931,0.0
 0000141,0.00007702,0.00005655,-0.00003507,-0.00005971,-0.00004401,0.00
 005869,-0.00015721,-0.00001793,-0.00019442,-0.00401820,-0.00000700,-0.
 00386436,-0.26952825,-0.16923854,0.11574138,0.00005035,-0.00003841,-0.
 00001107,-0.00001069,0.00004494,-0.00000312,-0.00000229,-0.00000944,0.
 00000966,-0.00000077,-0.00001695,0.00002598,0.00001371,-0.00001864,-0.
 00000377,0.00000505,-0.00000413,0.00001533,-0.00000914,0.00000745,0.00
 000250,-0.00002245,0.00002492,-0.00005544,0.00002093,0.00003239,-0.000
 04725,0.00000855,0.00008286,-0.00000444,-0.00028732,0.00038125,-0.0000
 5366,-0.00020269,-0.00001986,-0.00030379,0.00025107,0.00001830,-0.0001
 8617,-0.00076316,0.00027188,0.00077828,0.00218664,-0.00019841,0.001905
 04,-0.00007034,-0.00000086,0.00003560,0.00001245,-0.00002783,-0.000038
 32,0.00000448,-0.00000385,0.00001255,0.00004174,-0.00002248,0.00002666
 ,-0.00006706,0.00002598,-0.00006193,-0.00019648,0.00005535,-0.00023824
 ,0.00000005,-0.00016071,0.00001808,-0.00006886,0.00003088,0.00002572,-
 0.00005063,-0.00000331,-0.00001584,-0.00001610,0.00003190,0.00011325,-
 0.00004180,-0.00002619,0.00002328,-0.00000197,-0.00002956,-0.00006572,
 0.00011072,0.00009744,-0.00024030,0.00001175,-0.00000620,-0.00001964,-
 0.00000142,-0.00000510,-0.00000971,-0.00001513,0.00000799,-0.00001224,
 0.00000160,-0.00000347,0.00000375,-0.00000579,-0.00000722,0.00000419,-
 0.00001421,-0.00000028,-0.00000451,0.00001814,0.00001051,0.00001276,-0
 .00001654,0.00000159,-0.00000846,0.00002942,-0.00001923,0.00000162,-0.
 00001462,-0.00000333,-0.00000207,0.00004004,0.00001395,-0.00002544,0.0
 0005901,-0.00001763,-0.00008831,0.00003294,0.00007215,-0.00003843,-0.0
 0003619,-0.00006549,0.00001108,-0.00035997,-0.00186093,0.00096624,0.31
 040261,0.00015666,-0.00026571,0.00016892,-0.00039569,0.00050191,-0.000
 13372,0.00016083,0.00001805,-0.00004456,0.00000830,0.00008693,0.000026
 34,0.00010627,0.00003456,-0.00007553,-0.00007402,0.00016696,-0.0000415
 4,0.00002597,-0.00002918,-0.00002589,-0.00004422,-0.00003863,0.0000560
 9,-0.00014074,-0.00004663,0.00009252,-0.00011024,-0.00014474,0.0000007
 7,-0.00016874,-0.00029966,0.00007181,0.00017868,-0.00075158,0.00016759
 ,0.00084686,0.00081049,-0.00110598,0.00316723,-0.00009078,0.00187589,0
 .00084636,-0.00050744,0.00034362,0.00282173,0.00284043,-0.00261084,-0.
 00176916,-0.00089859,-0.00172388,0.00098119,0.00031862,0.00100491,-0.0
 0031184,-0.00026753,0.00003351,-0.00011093,0.00024682,-0.00025116,0.00
 003757,-0.00029443,0.00026813,0.00007294,-0.00150623,0.00234646,0.0005
 9320,0.00248212,-0.00134343,0.00111569,0.00441554,0.00514771,0.0001488
 5,-0.00079311,-0.00167789,0.00067832,0.00087632,0.00084160,-0.00044535
 ,-0.00061221,0.00008331,-0.00028550,-0.00013228,0.00001267,0.00027747,
 0.00008150,-0.00022753,-0.00031894,-0.00016013,0.00018453,-0.00012282,
 0.00014330,-0.00089488,-0.00014153,0.00002557,0.00031815,0.00004567,-0
 .00000250,-0.00003687,0.00002557,0.00002583,0.00001349,-0.00001574,-0.
 00002047,0.00000486,0.00009532,0.00005193,-0.00001229,-0.00006888,-0.0
 0005976,0.00003118,0.00001364,0.00006923,-0.00051354,-0.00114332,-0.00
 432163,-0.00611095,-0.19616229,-0.15287025,0.11285748,-0.00000650,-0.0
 0002451,0.00002329,0.00000709,-0.00000534,0.00006393,-0.00002212,0.000
 00466,0.00001464,-0.00001670,-0.00001092,0.00001307,0.00001126,-0.0000
 1523,0.00000186,0.00000907,-0.00000200,0.00001304,-0.00001670,-0.00000
 178,-0.00000183,-0.00001435,0.00005291,-0.00004649,0.00005695,0.000009
 21,-0.00001036,0.00007601,0.00002507,-0.00000890,0.00010498,0.00048796
 ,-0.00013072,0.00045495,-0.00010612,0.00029580,-0.00009334,0.00005344,
 0.00005014,-0.00078462,0.00100185,0.00043569,0.00220680,0.00065863,0.0
 0060227,-0.00024211,-0.00032798,0.00001149,0.00001587,-0.00000803,-0.0
 0002588,0.00000886,-0.00000935,0.00002905,0.00001485,-0.00003547,0.000
 04398,-0.00006174,0.00013576,-0.00002635,0.00012159,-0.00018670,0.0000
 6783,0.00031038,-0.00020578,-0.00110616,-0.00002972,-0.00008431,0.0001
 2798,-0.00004934,-0.00000746,-0.00006487,0.00003526,0.00002375,-0.0000
 2218,-0.00008149,-0.00004830,-0.00000380,-0.00003687,-0.00005516,-0.00
 007234,0.00018237,0.00016170,-0.00027087,0.00001328,-0.00001509,-0.000
 03931,0.00001445,0.00000422,-0.00002456,-0.00002136,0.00001855,-0.0000
 2949,-0.00000026,-0.00001688,0.00000937,-0.00000239,-0.00001210,-0.000
 00273,-0.00002293,0.00000521,-0.00000510,0.00002796,0.00001606,0.00002
 334,-0.00002573,0.00000061,-0.00001628,0.00003516,-0.00003109,0.000007
 61,-0.00001998,-0.00000275,-0.00000215,0.00006105,0.00002642,-0.000018
 83,0.00008193,-0.00001064,-0.00004906,0.00005704,0.00010860,-0.0000105
 7,-0.00011405,-0.00013619,0.00002411,-0.00075092,-0.00109308,-0.000366
 40,0.18793169,0.15057501,-0.00015433,0.00010745,-0.00026802,0.00033392
 ,-0.00029446,0.00021353,-0.00002619,-0.00002287,0.00028618,0.00001347,
 -0.00004660,-0.00001306,-0.00010849,-0.00002627,0.00011867,0.00005778,
 -0.00010320,0.00001485,-0.00006298,0.00006029,0.00009206,0.00011018,-0
 .00002277,-0.00010588,0.00014895,0.00000962,-0.00017808,0.00002349,0.0
 0007411,-0.00005946,-0.00015430,0.00017075,-0.00028024,-0.00025070,0.0
 0037970,-0.00025564,-0.00067408,-0.00040270,0.00129251,-0.00258162,0.0
 0023779,-0.00377511,0.00018443,-0.00001288,0.00042992,-0.02356036,-0.0
 1535920,0.01013817,-0.00583723,-0.00128327,0.00186514,0.00051322,-0.00
 030091,-0.00173081,0.00000529,0.00024929,0.00028138,0.00015829,-0.0001
 7526,0.00008630,0.00010929,0.00015256,-0.00025037,0.00251730,0.0013045
 6,-0.00017118,-0.00106880,0.00024241,-0.00082733,-0.00038394,-0.001326
 66,-0.00544035,-0.00007740,0.00068961,0.00093310,-0.00035653,-0.000279
 15,-0.00075397,0.00022081,0.00002516,0.00029147,0.00031948,0.00019453,
 -0.00032595,-0.00044802,-0.00000678,0.00019153,0.00056234,-0.00001341,
 -0.00012436,0.00009436,-0.00034222,0.00088035,0.00014616,0.00001767,-0
 .00036416,-0.00004655,0.00000563,0.00003621,-0.00001451,-0.00002828,-0
 .00002155,-0.00000365,0.00003296,-0.00000494,-0.00007743,-0.00003345,0
 .00000239,0.00011473,-0.00004332,-0.00003620,-0.00020625,-0.00047238,0
 .00043241,-0.00139019,-0.00309479,-0.00019372,0.15551918,0.12645467,-0
 .12356175,0.00001019,0.00002199,-0.00002487,0.00002317,-0.00000208,-0.
 00004149,0.00001444,-0.00000505,-0.00001138,0.00001433,0.00000876,-0.0
 0002360,-0.00000096,0.00001237,-0.00000622,-0.00000338,-0.00000469,-0.
 00001285,0.00001433,-0.00000175,-0.00001101,-0.00002598,-0.00000901,0.
 00003816,-0.00003731,0.00000198,0.00005456,-0.00000493,-0.00003484,0.0
 0003953,0.00019684,-0.00021987,0.00012285,-0.00035924,0.00004580,-0.00
 027629,0.00017853,-0.00016984,-0.00009508,0.00023141,0.00082938,-0.000
 20330,-0.00143795,0.00137511,-0.00016603,0.00010052,0.00015570,0.00003
 055,0.00002718,0.00004123,-0.00003157,-0.00003225,-0.00000902,-0.00004
 395,0.00004126,0.00002908,0.00000368,-0.00001971,0.00002717,0.00009261
 ,0.00000376,-0.00010804,0.00009863,-0.00001902,0.00023234,0.00043482,0
 .00003373,-0.00001192,-0.00004983,0.00003421,-0.00000902,0.00004073,0.
 00001298,-0.00002339,-0.00002713,0.00011374,0.00002033,0.00004649,-0.0
 0002486,-0.00002352,0.00000136,-0.00030953,-0.00016051,0.00026396,-0.0
 0001317,0.00001063,0.00002562,-0.00002259,-0.00000356,0.00003340,0.000
 01808,-0.00001949,0.00003489,0.00000716,0.00001359,-0.00001264,-0.0000
 0041,0.00001354,-0.00000054,0.00002467,-0.00001410,0.00001102,-0.00002
 433,-0.00001732,-0.00004148,0.00002751,-0.00000231,0.00001453,-0.00004
 675,0.00004833,0.00000015,0.00002670,-0.00000891,0.00001269,-0.0000827
 7,-0.00001479,0.00002348,-0.00012493,0.00006581,0.00012247,-0.00013527
 ,0.00009858,-0.00003364,0.00007988,0.00016097,0.00004633,0.00082903,-0
 .00043328,0.00316572,-0.12300739,-0.10862434,0.11751064\\0.00000502,0.
 00001549,-0.00000561,-0.00000007,-0.00001502,-0.00000809,0.00001633,0.
 00000022,0.00001267,0.00000968,0.00001908,-0.00000443,0.00000248,0.000
 00005,-0.00000063,-0.00000351,-0.00001084,-0.00000113,0.00001902,-0.00
 000193,-0.00000591,-0.00001292,0.00000075,-0.00000317,0.00000544,0.000
 00497,0.00000321,-0.00000242,-0.00001215,-0.00000398,-0.00000614,0.000
 00536,-0.00001222,-0.00000926,0.00001169,0.00000723,-0.00000346,-0.000
 00242,0.00000066,-0.00000191,0.00000887,0.00000981,0.00000889,-0.00000
 431,-0.00001610,-0.00000197,0.00000273,0.00001744,0.00000485,-0.000001
 57,-0.00000558,-0.00000775,-0.00001182,0.00000196,0.00000466,0.0000036
 6,-0.00001997,0.00000291,0.00001284,-0.00000390,-0.00000390,-0.0000066
 1,0.00000386,-0.00001154,0.00000191,0.00000139,0.00000986,-0.00000166,
 -0.00000521,-0.00000684,0.00000011,0.00000080,0.00001021,-0.00000378,-
 0.00000953,-0.00002088,0.00000630,-0.00000267,0.00001062,-0.00000196,0
 .00000728,0.00000182,0.00000956,0.00000082,-0.00000466,0.00000544,0.00
 001075,0.00001311,-0.00000085,-0.00001644,-0.00000146,-0.00000645,-0.0
 0000472,0.00000044,0.00000707,0.00000333,0.00000055,-0.00000610,-0.000
 00004,0.00000136,0.00000182,0.00000523,-0.00000116,-0.00000408,0.00000
 170,0.00000147,-0.00000282,-0.00000661,0.00000543,0.00000454,-0.000006
 83,0.00000017,-0.00000131,0.00000923,-0.00000138,-0.00000517,-0.000002
 35,0.00000457,-0.00000719,-0.00000660,-0.00000405,0.00000676,0.0000080
 0,0.00000005,0.00000097,-0.00000611,-0.00000295,-0.00000330,0.00000349
 ,0.00000030,0.00000420,-0.00000010,-0.00000545,-0.00000204,0.00000245,
 0.00000053,0.00000592,-0.00000106,-0.00000471,0.00000064,-0.00000088,0
 .00000296,-0.00000282,0.00001093,-0.00000449,0.00000118,-0.00000162,-0
 .00000233,0.00000371,0.00000300,-0.00000762,-0.00000573,0.00000412,-0.
 00000452,0.00000412,0.00000333,0.00000334,-0.00000375,0.00000115,-0.00
 000465,-0.00000428,0.00000450,0.00000245,-0.00000107,-0.00000004,-0.00
 000007,0.00000018,0.00000107,0.00000057,-0.00000171,0.00000517,0.00000
 070,-0.00000134,-0.00000177,-0.00000261,0.00000008,0.00000039,0.000000
 26,-0.00000435,-0.00000195,-0.00000681,-0.00000073,0.00000380,0.000002
 21,-0.00000109,0.00000126,-0.00000278,0.00000008,0.00000288,0.00000169
 ,-0.00000422,-0.00000161,0.00000026,-0.00000745,-0.00000078,-0.0000007
 7,0.00000190,-0.00000298,-0.00000085,-0.00000603,-0.00000174,-0.000005
 60,-0.00000254,0.00000708,0.00000219,-0.00000514,0.00000051,0.00000327
 ,-0.00000008,-0.00000090,0.00000381,-0.00000062,0.00000046,-0.00000019
 ,0.00000215,0.00000188,0.00000162,-0.00000071,-0.00000333,0.00000011,0
 .00000341,-0.00000259,0.00000351,-0.00000133,-0.00000211,-0.00000166,-
 0.00000198,0.00000320,0.00000218,0.00000018,0.00000272,-0.00000056,0.0
 0000421,0.00000058,-0.00000755,0.00000634,0.00000129,-0.00000414,-0.00
 000323,0.00000465,0.00000137,-0.00000605,0.00000503,0.00000062,0.00000
 172,-0.00000305,0.00000244,0.00000260,-0.00000045,0.00000031,0.0000068
 0,0.00000447\\\@


 Some scientists claim that hydrogen, because it is so
 plentiful, is the basic building block of the universe. 
 I dispute that. I say that stupidity is far more
 abundant than hydrogen, and THAT is the basic building 
 block of the universe.
                   --Frank Zappa
 Job cpu time:      22 days  1 hours 11 minutes 10.9 seconds.
 File lengths (MBytes):  RWF=  24153 Int=      0 D2E=      0 Chk=     97 Scr=      1
 Normal termination of Gaussian 09 at Fri Mar 25 02:07:39 2016.
