 Entering Gaussian System, Link 0=g09
 Initial command:
 /share/apps//g09/l1.exe "/scratch/Gau-15556.inp" -scrdir="/scratch/"
 Entering Link 1 = /share/apps//g09/l1.exe PID=     15557.
  
 Copyright (c) 1988,1990,1992,1993,1995,1998,2003,2009,2013,
            Gaussian, Inc.  All Rights Reserved.
  
 This is part of the Gaussian(R) 09 program.  It is based on
 the Gaussian(R) 03 system (copyright 2003, Gaussian, Inc.),
 the Gaussian(R) 98 system (copyright 1998, Gaussian, Inc.),
 the Gaussian(R) 94 system (copyright 1995, Gaussian, Inc.),
 the Gaussian 92(TM) system (copyright 1992, Gaussian, Inc.),
 the Gaussian 90(TM) system (copyright 1990, Gaussian, Inc.),
 the Gaussian 88(TM) system (copyright 1988, Gaussian, Inc.),
 the Gaussian 86(TM) system (copyright 1986, Carnegie Mellon
 University), and the Gaussian 82(TM) system (copyright 1983,
 Carnegie Mellon University). Gaussian is a federally registered
 trademark of Gaussian, Inc.
  
 This software contains proprietary and confidential information,
 including trade secrets, belonging to Gaussian, Inc.
  
 This software is provided under written license and may be
 used, copied, transmitted, or stored only in accord with that
 written license.
  
 The following legend is applicable only to US Government
 contracts under FAR:
  
                    RESTRICTED RIGHTS LEGEND
  
 Use, reproduction and disclosure by the US Government is
 subject to restrictions as set forth in subparagraphs (a)
 and (c) of the Commercial Computer Software - Restricted
 Rights clause in FAR 52.227-19.
  
 Gaussian, Inc.
 340 Quinnipiac St., Bldg. 40, Wallingford CT 06492
  
  
 ---------------------------------------------------------------
 Warning -- This program may not be used in any manner that
 competes with the business of Gaussian, Inc. or will provide
 assistance to any competitor of Gaussian, Inc.  The licensee
 of this program is prohibited from giving any competitor of
 Gaussian, Inc. access to this program.  By using this program,
 the user acknowledges that Gaussian, Inc. is engaged in the
 business of creating and licensing software in the field of
 computational chemistry and represents and warrants to the
 licensee that it is not a competitor of Gaussian, Inc. and that
 it will not use this program in any manner prohibited above.
 ---------------------------------------------------------------
  

 Cite this work as:
 Gaussian 09, Revision D.01,
 M. J. Frisch, G. W. Trucks, H. B. Schlegel, G. E. Scuseria, 
 M. A. Robb, J. R. Cheeseman, G. Scalmani, V. Barone, B. Mennucci, 
 G. A. Petersson, H. Nakatsuji, M. Caricato, X. Li, H. P. Hratchian, 
 A. F. Izmaylov, J. Bloino, G. Zheng, J. L. Sonnenberg, M. Hada, 
 M. Ehara, K. Toyota, R. Fukuda, J. Hasegawa, M. Ishida, T. Nakajima, 
 Y. Honda, O. Kitao, H. Nakai, T. Vreven, J. A. Montgomery, Jr., 
 J. E. Peralta, F. Ogliaro, M. Bearpark, J. J. Heyd, E. Brothers, 
 K. N. Kudin, V. N. Staroverov, T. Keith, R. Kobayashi, J. Normand, 
 K. Raghavachari, A. Rendell, J. C. Burant, S. S. Iyengar, J. Tomasi, 
 M. Cossi, N. Rega, J. M. Millam, M. Klene, J. E. Knox, J. B. Cross, 
 V. Bakken, C. Adamo, J. Jaramillo, R. Gomperts, R. E. Stratmann, 
 O. Yazyev, A. J. Austin, R. Cammi, C. Pomelli, J. W. Ochterski, 
 R. L. Martin, K. Morokuma, V. G. Zakrzewski, G. A. Voth, 
 P. Salvador, J. J. Dannenberg, S. Dapprich, A. D. Daniels, 
 O. Farkas, J. B. Foresman, J. V. Ortiz, J. Cioslowski, 
 and D. J. Fox, Gaussian, Inc., Wallingford CT, 2013.
 
 ******************************************
 Gaussian 09:  EM64L-G09RevD.01 24-Apr-2013
                19-May-2016 
 ******************************************
 %nproc=20
 Will use up to   20 processors via shared memory.
 %mem=80GB
 %chk=Tri_A154_of.chk
 ----------------------------------------------------------------------
 #P PBE1PBE/6-311+G(d,p) opt=ModRedundant optcyc=999 freq EmpiricalDisp
 ersion=GD3
 ----------------------------------------------------------------------
 1/6=999,14=-1,18=120,19=15,26=3,38=1/1,3;
 2/9=110,12=2,17=6,18=5,40=1/2;
 3/5=4,6=6,7=111,11=2,16=1,25=1,30=1,71=1,74=-13,124=31/1,2,3;
 4//1;
 5/5=2,38=5/2;
 6/7=2,8=2,9=2,10=2,28=1/1;
 7//1,2,3,16;
 1/6=999,14=-1,18=20,19=15,26=3/3(2);
 2/9=110/2;
 99//99;
 2/9=110/2;
 3/5=4,6=6,7=111,11=2,16=1,25=1,30=1,71=1,74=-13,124=31/1,2,3;
 4/5=5,16=3,69=1/1;
 5/5=2,38=5/2;
 7//1,2,3,16;
 1/6=999,14=-1,18=20,19=15,26=3/3(-5);
 2/9=110/2;
 6/7=2,8=2,9=2,10=2,19=2,28=1/1;
 99/9=1/99;
 Leave Link    1 at Thu May 19 00:36:13 2016, MaxMem= 10737418240 cpu:         4.4
 (Enter /share/apps//g09/l101.exe)
 -------
 disacch
 -------
 Symbolic Z-matrix:
 Charge =  1 Multiplicity = 1
 O                     2.27549   2.22083  -1.03605 
 C                     2.96226   1.00829  -1.40875 
 C                     3.05474   0.87936  -2.92988 
 C                     3.75766   2.10315  -3.5128 
 C                     3.07207   3.39891  -3.06923 
 C                     2.8644    3.43442  -1.54667 
 C                     1.97215   4.58716  -1.08061 
 O                     0.63142   4.51745  -1.59279 
 O                     1.80873   3.53741  -3.74196 
 O                     3.72387   2.10273  -4.93977 
 O                     3.81709  -0.25398  -3.30494 
 O                     2.15627  -0.01147  -0.89878 
 C                     2.7352   -0.97897  -0.00316 
 C                     2.36511  -2.36151  -0.535 
 O                     2.89921  -2.53783  -1.85025 
 C                     0.84438  -2.48732  -0.54963 
 C                     0.26637  -2.25494   0.86199 
 O                     0.74619  -1.02399   1.43036 
 C                     2.16099  -0.8324    1.41657 
 C                     2.42      0.519     2.09887 
 O                     1.61671   1.60128   1.61961 
 O                    -1.1378   -2.20435   0.8982 
 C                    -1.77628  -1.19443   0.0924 
 C                    -2.69075  -1.88928  -0.9212 
 C                    -3.5932   -0.89385  -1.6485 
 C                    -4.33859  -0.01481  -0.64526 
 O                    -3.37639   0.63764   0.20277 
 C                    -2.63231  -0.29302   1.00994 
 C                    -1.85783   0.53104   2.03223 
 O                    -1.04188   1.53828   1.42672 
 O                    -5.02465   0.9612   -1.36004 
 C                    -5.96561   1.73321  -0.56683 
 C                    -5.99563   3.16366  -1.09304 
 C                    -4.61466   3.83099  -1.17627 
 C                    -3.89424   4.0042    0.16967 
 C                    -2.42893   4.40419   0.01886 
 N                    -1.59913   3.27346  -0.52327 
 O                    -4.46731  -1.674    -2.46041 
 O                    -1.90168  -2.61081  -1.88047 
 O                     0.52211  -3.77905  -1.04098 
 H                     3.97559   0.98523  -0.95515 
 H                     2.01781   0.82746  -3.31349 
 H                     4.80587   2.10826  -3.15454 
 H                     3.72253   4.25276  -3.33586 
 H                     3.86257   3.58403  -1.08713 
 H                     2.44263   5.54038  -1.37625 
 H                     1.89733   4.57165   0.01579 
 H                     0.73048   4.31081  -2.55365 
 H                     1.96642   3.25261  -4.66541 
 H                     3.97819   1.20678  -5.23171 
 H                     3.40059  -1.06308  -2.92291 
 H                     3.83252  -0.86665   0.02072 
 H                     2.79567  -3.12651   0.13958 
 H                     2.42102  -3.30481  -2.225 
 H                     0.46286  -1.70962  -1.23102 
 H                     0.52546  -3.1101    1.51327 
 H                     2.66338  -1.59949   2.04447 
 H                     2.17514   0.41976   3.16499 
 H                     3.49392   0.76381   2.02555 
 H                     1.87148   1.81992   0.69114 
 H                    -1.0307   -0.56603  -0.42034 
 H                    -3.32904  -2.60297  -0.3655 
 H                    -2.96648  -0.22404  -2.26989 
 H                    -5.0255   -0.62217  -0.01712 
 H                    -3.32754  -0.94214   1.58034 
 H                    -2.59012   1.03227   2.68486 
 H                    -1.24279  -0.14067   2.64448 
 H                    -0.06682   1.36257   1.55868 
 H                    -5.65301   1.70487   0.48787 
 H                    -6.9615    1.26752  -0.64654 
 H                    -6.67078   3.7461   -0.44465 
 H                    -6.44979   3.16843  -2.09582 
 H                    -4.72306   4.8159   -1.65746 
 H                    -4.00709   3.2209   -1.86687 
 H                    -3.94197   3.07821   0.7628 
 H                    -4.39696   4.78344   0.7632 
 H                    -2.30792   5.25864  -0.66227 
 H                    -1.98461   4.67498   0.98549 
 H                    -2.09426   2.80181  -1.28983 
 H                    -1.4203    2.53473   0.23228 
 H                    -0.67943   3.63661  -0.8933 
 H                    -5.01552  -1.06321  -2.98461 
 H                    -2.53042  -2.9454   -2.54819 
 H                    -0.39779  -3.7041   -1.38005 
 
 The following ModRedundant input section has been read:
 
 NAtoms=     84 NQM=       84 NQMF=       0 NMMI=      0 NMMIF=      0
                NMic=       0 NMicF=      0.
                    Isotopes and Nuclear Properties:
 (Nuclear quadrupole moments (NQMom) in fm**2, nuclear magnetic moments (NMagM)
  in nuclear magnetons)

  Atom         1           2           3           4           5           6           7           8           9          10
 IAtWgt=          16          12          12          12          12          12          12          16          16          16
 AtmWgt=  15.9949146  12.0000000  12.0000000  12.0000000  12.0000000  12.0000000  12.0000000  15.9949146  15.9949146  15.9949146
 NucSpn=           0           0           0           0           0           0           0           0           0           0
 AtZEff=   0.0000000   0.0000000   0.0000000   0.0000000   0.0000000   0.0000000   0.0000000   0.0000000   0.0000000   0.0000000
 NQMom=    0.0000000   0.0000000   0.0000000   0.0000000   0.0000000   0.0000000   0.0000000   0.0000000   0.0000000   0.0000000
 NMagM=    0.0000000   0.0000000   0.0000000   0.0000000   0.0000000   0.0000000   0.0000000   0.0000000   0.0000000   0.0000000
 AtZNuc=   8.0000000   6.0000000   6.0000000   6.0000000   6.0000000   6.0000000   6.0000000   8.0000000   8.0000000   8.0000000

  Atom        11          12          13          14          15          16          17          18          19          20
 IAtWgt=          16          16          12          12          16          12          12          16          12          12
 AtmWgt=  15.9949146  15.9949146  12.0000000  12.0000000  15.9949146  12.0000000  12.0000000  15.9949146  12.0000000  12.0000000
 NucSpn=           0           0           0           0           0           0           0           0           0           0
 AtZEff=   0.0000000   0.0000000   0.0000000   0.0000000   0.0000000   0.0000000   0.0000000   0.0000000   0.0000000   0.0000000
 NQMom=    0.0000000   0.0000000   0.0000000   0.0000000   0.0000000   0.0000000   0.0000000   0.0000000   0.0000000   0.0000000
 NMagM=    0.0000000   0.0000000   0.0000000   0.0000000   0.0000000   0.0000000   0.0000000   0.0000000   0.0000000   0.0000000
 AtZNuc=   8.0000000   8.0000000   6.0000000   6.0000000   8.0000000   6.0000000   6.0000000   8.0000000   6.0000000   6.0000000

  Atom        21          22          23          24          25          26          27          28          29          30
 IAtWgt=          16          16          12          12          12          12          16          12          12          16
 AtmWgt=  15.9949146  15.9949146  12.0000000  12.0000000  12.0000000  12.0000000  15.9949146  12.0000000  12.0000000  15.9949146
 NucSpn=           0           0           0           0           0           0           0           0           0           0
 AtZEff=   0.0000000   0.0000000   0.0000000   0.0000000   0.0000000   0.0000000   0.0000000   0.0000000   0.0000000   0.0000000
 NQMom=    0.0000000   0.0000000   0.0000000   0.0000000   0.0000000   0.0000000   0.0000000   0.0000000   0.0000000   0.0000000
 NMagM=    0.0000000   0.0000000   0.0000000   0.0000000   0.0000000   0.0000000   0.0000000   0.0000000   0.0000000   0.0000000
 AtZNuc=   8.0000000   8.0000000   6.0000000   6.0000000   6.0000000   6.0000000   8.0000000   6.0000000   6.0000000   8.0000000

  Atom        31          32          33          34          35          36          37          38          39          40
 IAtWgt=          16          12          12          12          12          12          14          16          16          16
 AtmWgt=  15.9949146  12.0000000  12.0000000  12.0000000  12.0000000  12.0000000  14.0030740  15.9949146  15.9949146  15.9949146
 NucSpn=           0           0           0           0           0           0           2           0           0           0
 AtZEff=   0.0000000   0.0000000   0.0000000   0.0000000   0.0000000   0.0000000   0.0000000   0.0000000   0.0000000   0.0000000
 NQMom=    0.0000000   0.0000000   0.0000000   0.0000000   0.0000000   0.0000000   2.0440000   0.0000000   0.0000000   0.0000000
 NMagM=    0.0000000   0.0000000   0.0000000   0.0000000   0.0000000   0.0000000   0.4037610   0.0000000   0.0000000   0.0000000
 AtZNuc=   8.0000000   6.0000000   6.0000000   6.0000000   6.0000000   6.0000000   7.0000000   8.0000000   8.0000000   8.0000000

  Atom        41          42          43          44          45          46          47          48          49          50
 IAtWgt=           1           1           1           1           1           1           1           1           1           1
 AtmWgt=   1.0078250   1.0078250   1.0078250   1.0078250   1.0078250   1.0078250   1.0078250   1.0078250   1.0078250   1.0078250
 NucSpn=           1           1           1           1           1           1           1           1           1           1
 AtZEff=   0.0000000   0.0000000   0.0000000   0.0000000   0.0000000   0.0000000   0.0000000   0.0000000   0.0000000   0.0000000
 NQMom=    0.0000000   0.0000000   0.0000000   0.0000000   0.0000000   0.0000000   0.0000000   0.0000000   0.0000000   0.0000000
 NMagM=    2.7928460   2.7928460   2.7928460   2.7928460   2.7928460   2.7928460   2.7928460   2.7928460   2.7928460   2.7928460
 AtZNuc=   1.0000000   1.0000000   1.0000000   1.0000000   1.0000000   1.0000000   1.0000000   1.0000000   1.0000000   1.0000000

  Atom        51          52          53          54          55          56          57          58          59          60
 IAtWgt=           1           1           1           1           1           1           1           1           1           1
 AtmWgt=   1.0078250   1.0078250   1.0078250   1.0078250   1.0078250   1.0078250   1.0078250   1.0078250   1.0078250   1.0078250
 NucSpn=           1           1           1           1           1           1           1           1           1           1
 AtZEff=   0.0000000   0.0000000   0.0000000   0.0000000   0.0000000   0.0000000   0.0000000   0.0000000   0.0000000   0.0000000
 NQMom=    0.0000000   0.0000000   0.0000000   0.0000000   0.0000000   0.0000000   0.0000000   0.0000000   0.0000000   0.0000000
 NMagM=    2.7928460   2.7928460   2.7928460   2.7928460   2.7928460   2.7928460   2.7928460   2.7928460   2.7928460   2.7928460
 AtZNuc=   1.0000000   1.0000000   1.0000000   1.0000000   1.0000000   1.0000000   1.0000000   1.0000000   1.0000000   1.0000000

  Atom        61          62          63          64          65          66          67          68          69          70
 IAtWgt=           1           1           1           1           1           1           1           1           1           1
 AtmWgt=   1.0078250   1.0078250   1.0078250   1.0078250   1.0078250   1.0078250   1.0078250   1.0078250   1.0078250   1.0078250
 NucSpn=           1           1           1           1           1           1           1           1           1           1
 AtZEff=   0.0000000   0.0000000   0.0000000   0.0000000   0.0000000   0.0000000   0.0000000   0.0000000   0.0000000   0.0000000
 NQMom=    0.0000000   0.0000000   0.0000000   0.0000000   0.0000000   0.0000000   0.0000000   0.0000000   0.0000000   0.0000000
 NMagM=    2.7928460   2.7928460   2.7928460   2.7928460   2.7928460   2.7928460   2.7928460   2.7928460   2.7928460   2.7928460
 AtZNuc=   1.0000000   1.0000000   1.0000000   1.0000000   1.0000000   1.0000000   1.0000000   1.0000000   1.0000000   1.0000000

  Atom        71          72          73          74          75          76          77          78          79          80
 IAtWgt=           1           1           1           1           1           1           1           1           1           1
 AtmWgt=   1.0078250   1.0078250   1.0078250   1.0078250   1.0078250   1.0078250   1.0078250   1.0078250   1.0078250   1.0078250
 NucSpn=           1           1           1           1           1           1           1           1           1           1
 AtZEff=   0.0000000   0.0000000   0.0000000   0.0000000   0.0000000   0.0000000   0.0000000   0.0000000   0.0000000   0.0000000
 NQMom=    0.0000000   0.0000000   0.0000000   0.0000000   0.0000000   0.0000000   0.0000000   0.0000000   0.0000000   0.0000000
 NMagM=    2.7928460   2.7928460   2.7928460   2.7928460   2.7928460   2.7928460   2.7928460   2.7928460   2.7928460   2.7928460
 AtZNuc=   1.0000000   1.0000000   1.0000000   1.0000000   1.0000000   1.0000000   1.0000000   1.0000000   1.0000000   1.0000000

  Atom        81          82          83          84
 IAtWgt=           1           1           1           1
 AtmWgt=   1.0078250   1.0078250   1.0078250   1.0078250
 NucSpn=           1           1           1           1
 AtZEff=   0.0000000   0.0000000   0.0000000   0.0000000
 NQMom=    0.0000000   0.0000000   0.0000000   0.0000000
 NMagM=    2.7928460   2.7928460   2.7928460   2.7928460
 AtZNuc=   1.0000000   1.0000000   1.0000000   1.0000000
 Leave Link  101 at Thu May 19 00:36:15 2016, MaxMem= 10737418240 cpu:         5.1
 (Enter /share/apps//g09/l103.exe)

 GradGradGradGradGradGradGradGradGradGradGradGradGradGradGradGradGradGrad
 Berny optimization.
 Initialization pass.
                           ----------------------------
                           !    Initial Parameters    !
                           ! (Angstroms and Degrees)  !
 --------------------------                            --------------------------
 ! Name  Definition              Value          Derivative Info.                !
 --------------------------------------------------------------------------------
 ! R1    R(1,2)                  1.4425         estimate D2E/DX2                !
 ! R2    R(1,6)                  1.4423         estimate D2E/DX2                !
 ! R3    R(2,3)                  1.5294         estimate D2E/DX2                !
 ! R4    R(2,12)                 1.3963         estimate D2E/DX2                !
 ! R5    R(2,41)                 1.1105         estimate D2E/DX2                !
 ! R6    R(3,4)                  1.5269         estimate D2E/DX2                !
 ! R7    R(3,11)                 1.4164         estimate D2E/DX2                !
 ! R8    R(3,42)                 1.1068         estimate D2E/DX2                !
 ! R9    R(4,5)                  1.5316         estimate D2E/DX2                !
 ! R10   R(4,10)                 1.4274         estimate D2E/DX2                !
 ! R11   R(4,43)                 1.1078         estimate D2E/DX2                !
 ! R12   R(5,6)                  1.5371         estimate D2E/DX2                !
 ! R13   R(5,9)                  1.438          estimate D2E/DX2                !
 ! R14   R(5,44)                 1.106          estimate D2E/DX2                !
 ! R15   R(6,7)                  1.5304         estimate D2E/DX2                !
 ! R16   R(6,45)                 1.109          estimate D2E/DX2                !
 ! R17   R(7,8)                  1.4369         estimate D2E/DX2                !
 ! R18   R(7,46)                 1.1034         estimate D2E/DX2                !
 ! R19   R(7,47)                 1.0991         estimate D2E/DX2                !
 ! R20   R(8,48)                 0.9878         estimate D2E/DX2                !
 ! R21   R(9,49)                 0.9792         estimate D2E/DX2                !
 ! R22   R(10,50)                0.976          estimate D2E/DX2                !
 ! R23   R(11,51)                0.9869         estimate D2E/DX2                !
 ! R24   R(12,13)                1.4399         estimate D2E/DX2                !
 ! R25   R(13,14)                1.5268         estimate D2E/DX2                !
 ! R26   R(13,19)                1.5385         estimate D2E/DX2                !
 ! R27   R(13,52)                1.1033         estimate D2E/DX2                !
 ! R28   R(14,15)                1.4305         estimate D2E/DX2                !
 ! R29   R(14,16)                1.526          estimate D2E/DX2                !
 ! R30   R(14,53)                1.1071         estimate D2E/DX2                !
 ! R31   R(15,54)                0.9784         estimate D2E/DX2                !
 ! R32   R(16,17)                1.543          estimate D2E/DX2                !
 ! R33   R(16,40)                1.4191         estimate D2E/DX2                !
 ! R34   R(16,55)                1.1021         estimate D2E/DX2                !
 ! R35   R(17,18)                1.4382         estimate D2E/DX2                !
 ! R36   R(17,22)                1.4055         estimate D2E/DX2                !
 ! R37   R(17,56)                1.1057         estimate D2E/DX2                !
 ! R38   R(18,19)                1.4278         estimate D2E/DX2                !
 ! R39   R(19,20)                1.5359         estimate D2E/DX2                !
 ! R40   R(19,57)                1.1113         estimate D2E/DX2                !
 ! R41   R(20,21)                1.4305         estimate D2E/DX2                !
 ! R42   R(20,58)                1.0984         estimate D2E/DX2                !
 ! R43   R(20,59)                1.1039         estimate D2E/DX2                !
 ! R44   R(21,60)                0.9873         estimate D2E/DX2                !
 ! R45   R(22,23)                1.4411         estimate D2E/DX2                !
 ! R46   R(23,24)                1.5318         estimate D2E/DX2                !
 ! R47   R(23,28)                1.5451         estimate D2E/DX2                !
 ! R48   R(23,61)                1.1017         estimate D2E/DX2                !
 ! R49   R(24,25)                1.5278         estimate D2E/DX2                !
 ! R50   R(24,39)                1.4365         estimate D2E/DX2                !
 ! R51   R(24,62)                1.1071         estimate D2E/DX2                !
 ! R52   R(25,26)                1.528          estimate D2E/DX2                !
 ! R53   R(25,38)                1.4254         estimate D2E/DX2                !
 ! R54   R(25,63)                1.1079         estimate D2E/DX2                !
 ! R55   R(26,27)                1.439          estimate D2E/DX2                !
 ! R56   R(26,31)                1.3907         estimate D2E/DX2                !
 ! R57   R(26,64)                1.1114         estimate D2E/DX2                !
 ! R58   R(27,28)                1.4392         estimate D2E/DX2                !
 ! R59   R(28,29)                1.5245         estimate D2E/DX2                !
 ! R60   R(28,65)                1.1091         estimate D2E/DX2                !
 ! R61   R(29,30)                1.4307         estimate D2E/DX2                !
 ! R62   R(29,66)                1.1015         estimate D2E/DX2                !
 ! R63   R(29,67)                1.0974         estimate D2E/DX2                !
 ! R64   R(30,68)                0.9995         estimate D2E/DX2                !
 ! R65   R(31,32)                1.4528         estimate D2E/DX2                !
 ! R66   R(32,33)                1.5245         estimate D2E/DX2                !
 ! R67   R(32,69)                1.1004         estimate D2E/DX2                !
 ! R68   R(32,70)                1.1023         estimate D2E/DX2                !
 ! R69   R(33,34)                1.536          estimate D2E/DX2                !
 ! R70   R(33,71)                1.1025         estimate D2E/DX2                !
 ! R71   R(33,72)                1.1008         estimate D2E/DX2                !
 ! R72   R(34,35)                1.5364         estimate D2E/DX2                !
 ! R73   R(34,73)                1.1015         estimate D2E/DX2                !
 ! R74   R(34,74)                1.1038         estimate D2E/DX2                !
 ! R75   R(35,36)                1.5264         estimate D2E/DX2                !
 ! R76   R(35,75)                1.1007         estimate D2E/DX2                !
 ! R77   R(35,76)                1.101          estimate D2E/DX2                !
 ! R78   R(36,37)                1.5037         estimate D2E/DX2                !
 ! R79   R(36,77)                1.0994         estimate D2E/DX2                !
 ! R80   R(36,78)                1.0978         estimate D2E/DX2                !
 ! R81   R(37,79)                1.0272         estimate D2E/DX2                !
 ! R82   R(37,80)                1.0717         estimate D2E/DX2                !
 ! R83   R(37,81)                1.0558         estimate D2E/DX2                !
 ! R84   R(38,82)                0.9739         estimate D2E/DX2                !
 ! R85   R(39,83)                0.9763         estimate D2E/DX2                !
 ! R86   R(40,84)                0.9833         estimate D2E/DX2                !
 ! A1    A(2,1,6)              114.9235         estimate D2E/DX2                !
 ! A2    A(1,2,3)              110.8933         estimate D2E/DX2                !
 ! A3    A(1,2,12)             104.1654         estimate D2E/DX2                !
 ! A4    A(1,2,41)             110.2654         estimate D2E/DX2                !
 ! A5    A(3,2,12)             109.6698         estimate D2E/DX2                !
 ! A6    A(3,2,41)             110.4472         estimate D2E/DX2                !
 ! A7    A(12,2,41)            111.2472         estimate D2E/DX2                !
 ! A8    A(2,3,4)              109.8749         estimate D2E/DX2                !
 ! A9    A(2,3,11)             111.3066         estimate D2E/DX2                !
 ! A10   A(2,3,42)             106.9787         estimate D2E/DX2                !
 ! A11   A(4,3,11)             107.0033         estimate D2E/DX2                !
 ! A12   A(4,3,42)             109.6664         estimate D2E/DX2                !
 ! A13   A(11,3,42)            112.0202         estimate D2E/DX2                !
 ! A14   A(3,4,5)              111.188          estimate D2E/DX2                !
 ! A15   A(3,4,10)             111.7474         estimate D2E/DX2                !
 ! A16   A(3,4,43)             108.4111         estimate D2E/DX2                !
 ! A17   A(5,4,10)             106.2115         estimate D2E/DX2                !
 ! A18   A(5,4,43)             109.0264         estimate D2E/DX2                !
 ! A19   A(10,4,43)            110.2259         estimate D2E/DX2                !
 ! A20   A(4,5,6)              111.5248         estimate D2E/DX2                !
 ! A21   A(4,5,9)              109.832          estimate D2E/DX2                !
 ! A22   A(4,5,44)             108.6666         estimate D2E/DX2                !
 ! A23   A(6,5,9)              110.0287         estimate D2E/DX2                !
 ! A24   A(6,5,44)             107.483          estimate D2E/DX2                !
 ! A25   A(9,5,44)             109.2416         estimate D2E/DX2                !
 ! A26   A(1,6,5)              112.7311         estimate D2E/DX2                !
 ! A27   A(1,6,7)              106.7328         estimate D2E/DX2                !
 ! A28   A(1,6,45)             109.5304         estimate D2E/DX2                !
 ! A29   A(5,6,7)              113.4427         estimate D2E/DX2                !
 ! A30   A(5,6,45)             106.976          estimate D2E/DX2                !
 ! A31   A(7,6,45)             107.2741         estimate D2E/DX2                !
 ! A32   A(6,7,8)              113.5093         estimate D2E/DX2                !
 ! A33   A(6,7,46)             108.6952         estimate D2E/DX2                !
 ! A34   A(6,7,47)             109.4423         estimate D2E/DX2                !
 ! A35   A(8,7,46)             110.1372         estimate D2E/DX2                !
 ! A36   A(8,7,47)             106.9404         estimate D2E/DX2                !
 ! A37   A(46,7,47)            107.97           estimate D2E/DX2                !
 ! A38   A(7,8,48)             105.2658         estimate D2E/DX2                !
 ! A39   A(5,9,49)             105.7663         estimate D2E/DX2                !
 ! A40   A(4,10,50)            107.0453         estimate D2E/DX2                !
 ! A41   A(3,11,51)            109.0457         estimate D2E/DX2                !
 ! A42   A(2,12,13)            119.066          estimate D2E/DX2                !
 ! A43   A(12,13,14)           107.1156         estimate D2E/DX2                !
 ! A44   A(12,13,19)           111.0952         estimate D2E/DX2                !
 ! A45   A(12,13,52)           110.1778         estimate D2E/DX2                !
 ! A46   A(14,13,19)           108.4964         estimate D2E/DX2                !
 ! A47   A(14,13,52)           109.9252         estimate D2E/DX2                !
 ! A48   A(19,13,52)           109.9707         estimate D2E/DX2                !
 ! A49   A(13,14,15)           109.961          estimate D2E/DX2                !
 ! A50   A(13,14,16)           108.6354         estimate D2E/DX2                !
 ! A51   A(13,14,53)           108.6133         estimate D2E/DX2                !
 ! A52   A(15,14,16)           110.6776         estimate D2E/DX2                !
 ! A53   A(15,14,53)           109.2605         estimate D2E/DX2                !
 ! A54   A(16,14,53)           109.6601         estimate D2E/DX2                !
 ! A55   A(14,15,54)           105.4442         estimate D2E/DX2                !
 ! A56   A(14,16,17)           110.6175         estimate D2E/DX2                !
 ! A57   A(14,16,40)           107.7386         estimate D2E/DX2                !
 ! A58   A(14,16,55)           107.0212         estimate D2E/DX2                !
 ! A59   A(17,16,40)           111.6405         estimate D2E/DX2                !
 ! A60   A(17,16,55)           109.2488         estimate D2E/DX2                !
 ! A61   A(40,16,55)           110.4646         estimate D2E/DX2                !
 ! A62   A(16,17,18)           111.4364         estimate D2E/DX2                !
 ! A63   A(16,17,22)           113.7803         estimate D2E/DX2                !
 ! A64   A(16,17,56)           109.5492         estimate D2E/DX2                !
 ! A65   A(18,17,22)           106.996          estimate D2E/DX2                !
 ! A66   A(18,17,56)           110.5482         estimate D2E/DX2                !
 ! A67   A(22,17,56)           104.2855         estimate D2E/DX2                !
 ! A68   A(17,18,19)           116.207          estimate D2E/DX2                !
 ! A69   A(13,19,18)           111.4676         estimate D2E/DX2                !
 ! A70   A(13,19,20)           115.5213         estimate D2E/DX2                !
 ! A71   A(13,19,57)           106.6729         estimate D2E/DX2                !
 ! A72   A(18,19,20)           106.3131         estimate D2E/DX2                !
 ! A73   A(18,19,57)           110.4793         estimate D2E/DX2                !
 ! A74   A(20,19,57)           106.2665         estimate D2E/DX2                !
 ! A75   A(19,20,21)           114.9719         estimate D2E/DX2                !
 ! A76   A(19,20,58)           108.3067         estimate D2E/DX2                !
 ! A77   A(19,20,59)           109.2496         estimate D2E/DX2                !
 ! A78   A(21,20,58)           105.5672         estimate D2E/DX2                !
 ! A79   A(21,20,59)           110.8706         estimate D2E/DX2                !
 ! A80   A(58,20,59)           107.5405         estimate D2E/DX2                !
 ! A81   A(20,21,60)           109.7373         estimate D2E/DX2                !
 ! A82   A(17,22,23)           116.9633         estimate D2E/DX2                !
 ! A83   A(22,23,24)           108.4566         estimate D2E/DX2                !
 ! A84   A(22,23,28)           108.7995         estimate D2E/DX2                !
 ! A85   A(22,23,61)           111.1079         estimate D2E/DX2                !
 ! A86   A(24,23,28)           109.0772         estimate D2E/DX2                !
 ! A87   A(24,23,61)           110.7811         estimate D2E/DX2                !
 ! A88   A(28,23,61)           108.5765         estimate D2E/DX2                !
 ! A89   A(23,24,25)           111.8435         estimate D2E/DX2                !
 ! A90   A(23,24,39)           109.9864         estimate D2E/DX2                !
 ! A91   A(23,24,62)           107.7272         estimate D2E/DX2                !
 ! A92   A(25,24,39)           109.5015         estimate D2E/DX2                !
 ! A93   A(25,24,62)           108.5671         estimate D2E/DX2                !
 ! A94   A(39,24,62)           109.154          estimate D2E/DX2                !
 ! A95   A(24,25,26)           110.5124         estimate D2E/DX2                !
 ! A96   A(24,25,38)           106.0674         estimate D2E/DX2                !
 ! A97   A(24,25,63)           109.0714         estimate D2E/DX2                !
 ! A98   A(26,25,38)           112.9349         estimate D2E/DX2                !
 ! A99   A(26,25,63)           107.2405         estimate D2E/DX2                !
 ! A100  A(38,25,63)           110.9955         estimate D2E/DX2                !
 ! A101  A(25,26,27)           108.7588         estimate D2E/DX2                !
 ! A102  A(25,26,31)           107.874          estimate D2E/DX2                !
 ! A103  A(25,26,64)           110.9887         estimate D2E/DX2                !
 ! A104  A(27,26,31)           108.3332         estimate D2E/DX2                !
 ! A105  A(27,26,64)           109.1456         estimate D2E/DX2                !
 ! A106  A(31,26,64)           111.6594         estimate D2E/DX2                !
 ! A107  A(26,27,28)           112.5214         estimate D2E/DX2                !
 ! A108  A(23,28,27)           109.3082         estimate D2E/DX2                !
 ! A109  A(23,28,29)           115.6028         estimate D2E/DX2                !
 ! A110  A(23,28,65)           108.1354         estimate D2E/DX2                !
 ! A111  A(27,28,29)           106.8104         estimate D2E/DX2                !
 ! A112  A(27,28,65)           110.049          estimate D2E/DX2                !
 ! A113  A(29,28,65)           106.8553         estimate D2E/DX2                !
 ! A114  A(28,29,30)           112.7362         estimate D2E/DX2                !
 ! A115  A(28,29,66)           107.7905         estimate D2E/DX2                !
 ! A116  A(28,29,67)           109.1464         estimate D2E/DX2                !
 ! A117  A(30,29,66)           108.0312         estimate D2E/DX2                !
 ! A118  A(30,29,67)           110.3286         estimate D2E/DX2                !
 ! A119  A(66,29,67)           108.6961         estimate D2E/DX2                !
 ! A120  A(29,30,68)           112.1305         estimate D2E/DX2                !
 ! A121  A(26,31,32)           114.3194         estimate D2E/DX2                !
 ! A122  A(31,32,33)           108.8395         estimate D2E/DX2                !
 ! A123  A(31,32,69)           109.0038         estimate D2E/DX2                !
 ! A124  A(31,32,70)           108.735          estimate D2E/DX2                !
 ! A125  A(33,32,69)           111.1369         estimate D2E/DX2                !
 ! A126  A(33,32,70)           110.7121         estimate D2E/DX2                !
 ! A127  A(69,32,70)           108.366          estimate D2E/DX2                !
 ! A128  A(32,33,34)           114.1209         estimate D2E/DX2                !
 ! A129  A(32,33,71)           107.7445         estimate D2E/DX2                !
 ! A130  A(32,33,72)           109.0637         estimate D2E/DX2                !
 ! A131  A(34,33,71)           110.6661         estimate D2E/DX2                !
 ! A132  A(34,33,72)           108.6431         estimate D2E/DX2                !
 ! A133  A(71,33,72)           106.3076         estimate D2E/DX2                !
 ! A134  A(33,34,35)           115.0291         estimate D2E/DX2                !
 ! A135  A(33,34,73)           108.8843         estimate D2E/DX2                !
 ! A136  A(33,34,74)           106.7775         estimate D2E/DX2                !
 ! A137  A(35,34,73)           109.1491         estimate D2E/DX2                !
 ! A138  A(35,34,74)           110.6293         estimate D2E/DX2                !
 ! A139  A(73,34,74)           105.9663         estimate D2E/DX2                !
 ! A140  A(34,35,36)           113.149          estimate D2E/DX2                !
 ! A141  A(34,35,75)           110.9091         estimate D2E/DX2                !
 ! A142  A(34,35,76)           109.7514         estimate D2E/DX2                !
 ! A143  A(36,35,75)           108.3804         estimate D2E/DX2                !
 ! A144  A(36,35,76)           107.8258         estimate D2E/DX2                !
 ! A145  A(75,35,76)           106.5661         estimate D2E/DX2                !
 ! A146  A(35,36,37)           111.6128         estimate D2E/DX2                !
 ! A147  A(35,36,77)           111.7491         estimate D2E/DX2                !
 ! A148  A(35,36,78)           111.4808         estimate D2E/DX2                !
 ! A149  A(37,36,77)           107.4772         estimate D2E/DX2                !
 ! A150  A(37,36,78)           106.2362         estimate D2E/DX2                !
 ! A151  A(77,36,78)           108.0153         estimate D2E/DX2                !
 ! A152  A(36,37,79)           110.3846         estimate D2E/DX2                !
 ! A153  A(36,37,80)           110.8699         estimate D2E/DX2                !
 ! A154  A(36,37,81)           110.3915         estimate D2E/DX2                !
 ! A155  A(79,37,80)           106.8599         estimate D2E/DX2                !
 ! A156  A(79,37,81)           108.4373         estimate D2E/DX2                !
 ! A157  A(80,37,81)           109.8055         estimate D2E/DX2                !
 ! A158  A(25,38,82)           107.9706         estimate D2E/DX2                !
 ! A159  A(24,39,83)           105.969          estimate D2E/DX2                !
 ! A160  A(16,40,84)           105.2169         estimate D2E/DX2                !
 ! D1    D(6,1,2,3)            -57.4252         estimate D2E/DX2                !
 ! D2    D(6,1,2,12)          -175.3256         estimate D2E/DX2                !
 ! D3    D(6,1,2,41)            65.2278         estimate D2E/DX2                !
 ! D4    D(2,1,6,5)             53.0744         estimate D2E/DX2                !
 ! D5    D(2,1,6,7)            178.2691         estimate D2E/DX2                !
 ! D6    D(2,1,6,45)           -65.9047         estimate D2E/DX2                !
 ! D7    D(1,2,3,4)             57.1076         estimate D2E/DX2                !
 ! D8    D(1,2,3,11)           175.4509         estimate D2E/DX2                !
 ! D9    D(1,2,3,42)           -61.8748         estimate D2E/DX2                !
 ! D10   D(12,2,3,4)           171.6037         estimate D2E/DX2                !
 ! D11   D(12,2,3,11)          -70.0531         estimate D2E/DX2                !
 ! D12   D(12,2,3,42)           52.6212         estimate D2E/DX2                !
 ! D13   D(41,2,3,4)           -65.4399         estimate D2E/DX2                !
 ! D14   D(41,2,3,11)           52.9033         estimate D2E/DX2                !
 ! D15   D(41,2,3,42)          175.5777         estimate D2E/DX2                !
 ! D16   D(1,2,12,13)         -124.2218         estimate D2E/DX2                !
 ! D17   D(3,2,12,13)          117.0389         estimate D2E/DX2                !
 ! D18   D(41,2,12,13)          -5.4434         estimate D2E/DX2                !
 ! D19   D(2,3,4,5)            -54.4907         estimate D2E/DX2                !
 ! D20   D(2,3,4,10)          -172.9803         estimate D2E/DX2                !
 ! D21   D(2,3,4,43)            65.3462         estimate D2E/DX2                !
 ! D22   D(11,3,4,5)          -175.46           estimate D2E/DX2                !
 ! D23   D(11,3,4,10)           66.0504         estimate D2E/DX2                !
 ! D24   D(11,3,4,43)          -55.6231         estimate D2E/DX2                !
 ! D25   D(42,3,4,5)            62.8282         estimate D2E/DX2                !
 ! D26   D(42,3,4,10)          -55.6614         estimate D2E/DX2                !
 ! D27   D(42,3,4,43)         -177.3349         estimate D2E/DX2                !
 ! D28   D(2,3,11,51)           58.5125         estimate D2E/DX2                !
 ! D29   D(4,3,11,51)          178.5691         estimate D2E/DX2                !
 ! D30   D(42,3,11,51)         -61.2128         estimate D2E/DX2                !
 ! D31   D(3,4,5,6)             50.2663         estimate D2E/DX2                !
 ! D32   D(3,4,5,9)            -71.9844         estimate D2E/DX2                !
 ! D33   D(3,4,5,44)           168.5684         estimate D2E/DX2                !
 ! D34   D(10,4,5,6)           172.038          estimate D2E/DX2                !
 ! D35   D(10,4,5,9)            49.7873         estimate D2E/DX2                !
 ! D36   D(10,4,5,44)          -69.6599         estimate D2E/DX2                !
 ! D37   D(43,4,5,6)           -69.2044         estimate D2E/DX2                !
 ! D38   D(43,4,5,9)           168.5449         estimate D2E/DX2                !
 ! D39   D(43,4,5,44)           49.0977         estimate D2E/DX2                !
 ! D40   D(3,4,10,50)          -46.5976         estimate D2E/DX2                !
 ! D41   D(5,4,10,50)         -168.0116         estimate D2E/DX2                !
 ! D42   D(43,4,10,50)          74.0232         estimate D2E/DX2                !
 ! D43   D(4,5,6,1)            -48.5188         estimate D2E/DX2                !
 ! D44   D(4,5,6,7)           -169.9788         estimate D2E/DX2                !
 ! D45   D(4,5,6,45)            71.9364         estimate D2E/DX2                !
 ! D46   D(9,5,6,1)             73.6186         estimate D2E/DX2                !
 ! D47   D(9,5,6,7)            -47.8414         estimate D2E/DX2                !
 ! D48   D(9,5,6,45)          -165.9262         estimate D2E/DX2                !
 ! D49   D(44,5,6,1)          -167.5278         estimate D2E/DX2                !
 ! D50   D(44,5,6,7)            71.0122         estimate D2E/DX2                !
 ! D51   D(44,5,6,45)          -47.0726         estimate D2E/DX2                !
 ! D52   D(4,5,9,49)           -40.976          estimate D2E/DX2                !
 ! D53   D(6,5,9,49)          -164.1111         estimate D2E/DX2                !
 ! D54   D(44,5,9,49)           78.1188         estimate D2E/DX2                !
 ! D55   D(1,6,7,8)            -62.1351         estimate D2E/DX2                !
 ! D56   D(1,6,7,46)           174.9397         estimate D2E/DX2                !
 ! D57   D(1,6,7,47)            57.2394         estimate D2E/DX2                !
 ! D58   D(5,6,7,8)             62.626          estimate D2E/DX2                !
 ! D59   D(5,6,7,46)           -60.2992         estimate D2E/DX2                !
 ! D60   D(5,6,7,47)          -177.9995         estimate D2E/DX2                !
 ! D61   D(45,6,7,8)          -179.462          estimate D2E/DX2                !
 ! D62   D(45,6,7,46)           57.6128         estimate D2E/DX2                !
 ! D63   D(45,6,7,47)          -60.0875         estimate D2E/DX2                !
 ! D64   D(6,7,8,48)           -45.7503         estimate D2E/DX2                !
 ! D65   D(46,7,8,48)           76.3779         estimate D2E/DX2                !
 ! D66   D(47,7,8,48)         -166.5442         estimate D2E/DX2                !
 ! D67   D(2,12,13,14)        -129.4723         estimate D2E/DX2                !
 ! D68   D(2,12,13,19)         112.1955         estimate D2E/DX2                !
 ! D69   D(2,12,13,52)          -9.93           estimate D2E/DX2                !
 ! D70   D(12,13,14,15)         60.7135         estimate D2E/DX2                !
 ! D71   D(12,13,14,16)        -60.548          estimate D2E/DX2                !
 ! D72   D(12,13,14,53)       -179.7721         estimate D2E/DX2                !
 ! D73   D(19,13,14,15)       -179.2783         estimate D2E/DX2                !
 ! D74   D(19,13,14,16)         59.4602         estimate D2E/DX2                !
 ! D75   D(19,13,14,53)        -59.764          estimate D2E/DX2                !
 ! D76   D(52,13,14,15)        -58.9909         estimate D2E/DX2                !
 ! D77   D(52,13,14,16)        179.7476         estimate D2E/DX2                !
 ! D78   D(52,13,14,53)         60.5234         estimate D2E/DX2                !
 ! D79   D(12,13,19,18)         60.0133         estimate D2E/DX2                !
 ! D80   D(12,13,19,20)        -61.4676         estimate D2E/DX2                !
 ! D81   D(12,13,19,57)       -179.3076         estimate D2E/DX2                !
 ! D82   D(14,13,19,18)        -57.4818         estimate D2E/DX2                !
 ! D83   D(14,13,19,20)       -178.9627         estimate D2E/DX2                !
 ! D84   D(14,13,19,57)         63.1973         estimate D2E/DX2                !
 ! D85   D(52,13,19,18)       -177.741          estimate D2E/DX2                !
 ! D86   D(52,13,19,20)         60.7781         estimate D2E/DX2                !
 ! D87   D(52,13,19,57)        -57.0618         estimate D2E/DX2                !
 ! D88   D(13,14,15,54)       -163.9691         estimate D2E/DX2                !
 ! D89   D(16,14,15,54)        -43.9389         estimate D2E/DX2                !
 ! D90   D(53,14,15,54)         76.912          estimate D2E/DX2                !
 ! D91   D(13,14,16,17)        -57.4812         estimate D2E/DX2                !
 ! D92   D(13,14,16,40)       -179.7596         estimate D2E/DX2                !
 ! D93   D(13,14,16,55)         61.4358         estimate D2E/DX2                !
 ! D94   D(15,14,16,17)       -178.3018         estimate D2E/DX2                !
 ! D95   D(15,14,16,40)         59.4198         estimate D2E/DX2                !
 ! D96   D(15,14,16,55)        -59.3848         estimate D2E/DX2                !
 ! D97   D(53,14,16,17)         61.0848         estimate D2E/DX2                !
 ! D98   D(53,14,16,40)        -61.1935         estimate D2E/DX2                !
 ! D99   D(53,14,16,55)       -179.9982         estimate D2E/DX2                !
 ! D100  D(14,16,17,18)         52.0716         estimate D2E/DX2                !
 ! D101  D(14,16,17,22)        173.1474         estimate D2E/DX2                !
 ! D102  D(14,16,17,56)        -70.5823         estimate D2E/DX2                !
 ! D103  D(40,16,17,18)        172.0368         estimate D2E/DX2                !
 ! D104  D(40,16,17,22)        -66.8874         estimate D2E/DX2                !
 ! D105  D(40,16,17,56)         49.3829         estimate D2E/DX2                !
 ! D106  D(55,16,17,18)        -65.4867         estimate D2E/DX2                !
 ! D107  D(55,16,17,22)         55.589          estimate D2E/DX2                !
 ! D108  D(55,16,17,56)        171.8594         estimate D2E/DX2                !
 ! D109  D(14,16,40,84)       -157.5459         estimate D2E/DX2                !
 ! D110  D(17,16,40,84)         80.8093         estimate D2E/DX2                !
 ! D111  D(55,16,40,84)        -40.968          estimate D2E/DX2                !
 ! D112  D(16,17,18,19)        -51.3825         estimate D2E/DX2                !
 ! D113  D(22,17,18,19)       -176.3415         estimate D2E/DX2                !
 ! D114  D(56,17,18,19)         70.6962         estimate D2E/DX2                !
 ! D115  D(16,17,22,23)        -58.7712         estimate D2E/DX2                !
 ! D116  D(18,17,22,23)         64.7536         estimate D2E/DX2                !
 ! D117  D(56,17,22,23)       -178.0808         estimate D2E/DX2                !
 ! D118  D(17,18,19,13)         54.629          estimate D2E/DX2                !
 ! D119  D(17,18,19,20)       -178.6814         estimate D2E/DX2                !
 ! D120  D(17,18,19,57)        -63.7932         estimate D2E/DX2                !
 ! D121  D(13,19,20,21)         75.1691         estimate D2E/DX2                !
 ! D122  D(13,19,20,58)       -167.0621         estimate D2E/DX2                !
 ! D123  D(13,19,20,59)        -50.2042         estimate D2E/DX2                !
 ! D124  D(18,19,20,21)        -49.045          estimate D2E/DX2                !
 ! D125  D(18,19,20,58)         68.7238         estimate D2E/DX2                !
 ! D126  D(18,19,20,59)       -174.4183         estimate D2E/DX2                !
 ! D127  D(57,19,20,21)       -166.7645         estimate D2E/DX2                !
 ! D128  D(57,19,20,58)        -48.9958         estimate D2E/DX2                !
 ! D129  D(57,19,20,59)         67.8622         estimate D2E/DX2                !
 ! D130  D(19,20,21,60)        -67.8308         estimate D2E/DX2                !
 ! D131  D(58,20,21,60)        172.866          estimate D2E/DX2                !
 ! D132  D(59,20,21,60)         56.6955         estimate D2E/DX2                !
 ! D133  D(17,22,23,24)        119.7463         estimate D2E/DX2                !
 ! D134  D(17,22,23,28)       -121.7251         estimate D2E/DX2                !
 ! D135  D(17,22,23,61)         -2.2441         estimate D2E/DX2                !
 ! D136  D(22,23,24,25)        169.836          estimate D2E/DX2                !
 ! D137  D(22,23,24,39)        -68.2604         estimate D2E/DX2                !
 ! D138  D(22,23,24,62)         50.6082         estimate D2E/DX2                !
 ! D139  D(28,23,24,25)         51.4833         estimate D2E/DX2                !
 ! D140  D(28,23,24,39)        173.3869         estimate D2E/DX2                !
 ! D141  D(28,23,24,62)        -67.7445         estimate D2E/DX2                !
 ! D142  D(61,23,24,25)        -67.9742         estimate D2E/DX2                !
 ! D143  D(61,23,24,39)         53.9295         estimate D2E/DX2                !
 ! D144  D(61,23,24,62)        172.798          estimate D2E/DX2                !
 ! D145  D(22,23,28,27)       -174.4668         estimate D2E/DX2                !
 ! D146  D(22,23,28,29)         65.0231         estimate D2E/DX2                !
 ! D147  D(22,23,28,65)        -54.6652         estimate D2E/DX2                !
 ! D148  D(24,23,28,27)        -56.3293         estimate D2E/DX2                !
 ! D149  D(24,23,28,29)       -176.8394         estimate D2E/DX2                !
 ! D150  D(24,23,28,65)         63.4723         estimate D2E/DX2                !
 ! D151  D(61,23,28,27)         64.4864         estimate D2E/DX2                !
 ! D152  D(61,23,28,29)        -56.0237         estimate D2E/DX2                !
 ! D153  D(61,23,28,65)       -175.712          estimate D2E/DX2                !
 ! D154  D(23,24,25,26)        -52.0554         estimate D2E/DX2                !
 ! D155  D(23,24,25,38)       -174.7892         estimate D2E/DX2                !
 ! D156  D(23,24,25,63)         65.6012         estimate D2E/DX2                !
 ! D157  D(39,24,25,26)       -174.2371         estimate D2E/DX2                !
 ! D158  D(39,24,25,38)         63.0291         estimate D2E/DX2                !
 ! D159  D(39,24,25,63)        -56.5805         estimate D2E/DX2                !
 ! D160  D(62,24,25,26)         66.6753         estimate D2E/DX2                !
 ! D161  D(62,24,25,38)        -56.0584         estimate D2E/DX2                !
 ! D162  D(62,24,25,63)       -175.6681         estimate D2E/DX2                !
 ! D163  D(23,24,39,83)       -173.9424         estimate D2E/DX2                !
 ! D164  D(25,24,39,83)        -50.6566         estimate D2E/DX2                !
 ! D165  D(62,24,39,83)         68.0678         estimate D2E/DX2                !
 ! D166  D(24,25,26,27)         56.2443         estimate D2E/DX2                !
 ! D167  D(24,25,26,31)        173.5385         estimate D2E/DX2                !
 ! D168  D(24,25,26,64)        -63.8402         estimate D2E/DX2                !
 ! D169  D(38,25,26,27)        174.876          estimate D2E/DX2                !
 ! D170  D(38,25,26,31)        -67.8297         estimate D2E/DX2                !
 ! D171  D(38,25,26,64)         54.7915         estimate D2E/DX2                !
 ! D172  D(63,25,26,27)        -62.5314         estimate D2E/DX2                !
 ! D173  D(63,25,26,31)         54.7629         estimate D2E/DX2                !
 ! D174  D(63,25,26,64)        177.3842         estimate D2E/DX2                !
 ! D175  D(24,25,38,82)       -176.1466         estimate D2E/DX2                !
 ! D176  D(26,25,38,82)         62.6669         estimate D2E/DX2                !
 ! D177  D(63,25,38,82)        -57.8039         estimate D2E/DX2                !
 ! D178  D(25,26,27,28)        -64.3109         estimate D2E/DX2                !
 ! D179  D(31,26,27,28)        178.6876         estimate D2E/DX2                !
 ! D180  D(64,26,27,28)         56.9096         estimate D2E/DX2                !
 ! D181  D(25,26,31,32)        169.8641         estimate D2E/DX2                !
 ! D182  D(27,26,31,32)        -72.5666         estimate D2E/DX2                !
 ! D183  D(64,26,31,32)         47.6551         estimate D2E/DX2                !
 ! D184  D(26,27,28,23)         64.8369         estimate D2E/DX2                !
 ! D185  D(26,27,28,29)       -169.4185         estimate D2E/DX2                !
 ! D186  D(26,27,28,65)        -53.7799         estimate D2E/DX2                !
 ! D187  D(23,28,29,30)         67.1043         estimate D2E/DX2                !
 ! D188  D(23,28,29,66)       -173.7564         estimate D2E/DX2                !
 ! D189  D(23,28,29,67)        -55.8671         estimate D2E/DX2                !
 ! D190  D(27,28,29,30)        -54.7517         estimate D2E/DX2                !
 ! D191  D(27,28,29,66)         64.3876         estimate D2E/DX2                !
 ! D192  D(27,28,29,67)       -177.723          estimate D2E/DX2                !
 ! D193  D(65,28,29,30)       -172.5096         estimate D2E/DX2                !
 ! D194  D(65,28,29,66)        -53.3703         estimate D2E/DX2                !
 ! D195  D(65,28,29,67)         64.5191         estimate D2E/DX2                !
 ! D196  D(28,29,30,68)       -113.7083         estimate D2E/DX2                !
 ! D197  D(66,29,30,68)        127.2924         estimate D2E/DX2                !
 ! D198  D(67,29,30,68)          8.6008         estimate D2E/DX2                !
 ! D199  D(26,31,32,33)        145.721          estimate D2E/DX2                !
 ! D200  D(26,31,32,69)         24.3565         estimate D2E/DX2                !
 ! D201  D(26,31,32,70)        -93.5936         estimate D2E/DX2                !
 ! D202  D(31,32,33,34)        -53.5664         estimate D2E/DX2                !
 ! D203  D(31,32,33,71)       -176.8841         estimate D2E/DX2                !
 ! D204  D(31,32,33,72)         68.1228         estimate D2E/DX2                !
 ! D205  D(69,32,33,34)         66.4859         estimate D2E/DX2                !
 ! D206  D(69,32,33,71)        -56.8318         estimate D2E/DX2                !
 ! D207  D(69,32,33,72)       -171.8248         estimate D2E/DX2                !
 ! D208  D(70,32,33,34)       -173.0276         estimate D2E/DX2                !
 ! D209  D(70,32,33,71)         63.6547         estimate D2E/DX2                !
 ! D210  D(70,32,33,72)        -51.3383         estimate D2E/DX2                !
 ! D211  D(32,33,34,35)        -62.7438         estimate D2E/DX2                !
 ! D212  D(32,33,34,73)        174.413          estimate D2E/DX2                !
 ! D213  D(32,33,34,74)         60.4105         estimate D2E/DX2                !
 ! D214  D(71,33,34,35)         58.9773         estimate D2E/DX2                !
 ! D215  D(71,33,34,73)        -63.8659         estimate D2E/DX2                !
 ! D216  D(71,33,34,74)       -177.8683         estimate D2E/DX2                !
 ! D217  D(72,33,34,35)        175.3354         estimate D2E/DX2                !
 ! D218  D(72,33,34,73)         52.4922         estimate D2E/DX2                !
 ! D219  D(72,33,34,74)        -61.5103         estimate D2E/DX2                !
 ! D220  D(33,34,35,36)        168.3461         estimate D2E/DX2                !
 ! D221  D(33,34,35,75)         46.31           estimate D2E/DX2                !
 ! D222  D(33,34,35,76)        -71.1726         estimate D2E/DX2                !
 ! D223  D(73,34,35,36)        -68.9525         estimate D2E/DX2                !
 ! D224  D(73,34,35,75)        169.0114         estimate D2E/DX2                !
 ! D225  D(73,34,35,76)         51.5288         estimate D2E/DX2                !
 ! D226  D(74,34,35,36)         47.2699         estimate D2E/DX2                !
 ! D227  D(74,34,35,75)        -74.7662         estimate D2E/DX2                !
 ! D228  D(74,34,35,76)        167.7512         estimate D2E/DX2                !
 ! D229  D(34,35,36,37)        -70.4072         estimate D2E/DX2                !
 ! D230  D(34,35,36,77)         49.9806         estimate D2E/DX2                !
 ! D231  D(34,35,36,78)        170.9662         estimate D2E/DX2                !
 ! D232  D(75,35,36,37)         53.033          estimate D2E/DX2                !
 ! D233  D(75,35,36,77)        173.4209         estimate D2E/DX2                !
 ! D234  D(75,35,36,78)        -65.5936         estimate D2E/DX2                !
 ! D235  D(76,35,36,37)        168.0223         estimate D2E/DX2                !
 ! D236  D(76,35,36,77)        -71.5899         estimate D2E/DX2                !
 ! D237  D(76,35,36,78)         49.3956         estimate D2E/DX2                !
 ! D238  D(35,36,37,79)         42.9765         estimate D2E/DX2                !
 ! D239  D(35,36,37,80)        -75.2402         estimate D2E/DX2                !
 ! D240  D(35,36,37,81)        162.8497         estimate D2E/DX2                !
 ! D241  D(77,36,37,79)        -79.8842         estimate D2E/DX2                !
 ! D242  D(77,36,37,80)        161.8992         estimate D2E/DX2                !
 ! D243  D(77,36,37,81)         39.9891         estimate D2E/DX2                !
 ! D244  D(78,36,37,79)        164.6863         estimate D2E/DX2                !
 ! D245  D(78,36,37,80)         46.4697         estimate D2E/DX2                !
 ! D246  D(78,36,37,81)        -75.4404         estimate D2E/DX2                !
 --------------------------------------------------------------------------------
 Trust Radius=3.00D-01 FncErr=1.00D-07 GrdErr=1.00D-06
 Number of steps in this run=    504 maximum allowed number of steps=    504.
 GradGradGradGradGradGradGradGradGradGradGradGradGradGradGradGradGradGrad

 Leave Link  103 at Thu May 19 00:36:16 2016, MaxMem= 10737418240 cpu:         0.6
 (Enter /share/apps//g09/l202.exe)
 Stoichiometry    C23H44NO16(1+)
 Framework group  C1[X(C23H44NO16)]
 Deg. of freedom   246
 Full point group                 C1      NOp   1
 Largest Abelian subgroup         C1      NOp   1
 Largest concise Abelian subgroup C1      NOp   1
                         Standard orientation:                         
 ---------------------------------------------------------------------
 Center     Atomic      Atomic             Coordinates (Angstroms)
 Number     Number       Type             X           Y           Z
 ---------------------------------------------------------------------
      1          8           0        2.457737    1.516886    0.618986
      2          6           0        3.249613    0.420340    0.117659
      3          6           0        3.628094    0.645745   -1.346909
      4          6           0        4.377648    1.968144   -1.491765
      5          6           0        3.570446    3.129291   -0.903597
      6          6           0        3.082336    2.813138    0.519207
      7          6           0        2.073767    3.830793    1.057071
      8          8           0        0.855370    3.886777    0.297386
      9          8           0        2.449542    3.424608   -1.754561
     10          8           0        4.609540    2.297366   -2.861154
     11          8           0        4.491451   -0.373510   -1.818120
     12          8           0        2.404274   -0.686274    0.219675
     13          6           0        2.844914   -1.836816    0.964954
     14          6           0        2.635522   -3.057649    0.072229
     15          8           0        3.411229   -2.927718   -1.122606
     16          6           0        1.150226   -3.170390   -0.259204
     17          6           0        0.311271   -3.267847    1.032084
     18          8           0        0.627659   -2.203395    1.946058
     19          6           0        2.011608   -2.019652    2.245190
     20          6           0        2.085239   -0.863399    3.253435
     21          8           0        1.342408    0.303610    2.889309
     22          8           0       -1.076071   -3.221177    0.811472
     23          6           0       -1.593553   -2.049855    0.150317
     24          6           0       -2.275370   -2.488097   -1.149501
     25          6           0       -3.066017   -1.347907   -1.789115
     26          6           0       -4.019256   -0.721196   -0.772563
     27          8           0       -3.258132   -0.286176    0.368543
     28          6           0       -2.640391   -1.381133    1.069092
     29          6           0       -2.102785   -0.818602    2.380011
     30          8           0       -1.229421    0.297849    2.185790
     31          8           0       -4.599005    0.396312   -1.363537
     32          6           0       -5.700969    0.968192   -0.609072
     33          6           0       -5.689786    2.481601   -0.791971
     34          6           0       -4.345138    3.144398   -0.457371
     35          6           0       -3.894750    2.999165    1.004347
     36          6           0       -2.444077    3.417104    1.229611
     37          7           0       -1.483569    2.438686    0.612239
     38          8           0       -3.742268   -1.915880   -2.908039
     39          8           0       -1.293700   -2.971889   -2.079933
     40          8           0        0.976638   -4.312415   -1.083519
     41          1           0        4.161155    0.288974    0.738107
     42          1           0        2.683372    0.688114   -1.922044
     43          1           0        5.340020    1.886057   -0.949342
     44          1           0        4.224510    4.018935   -0.840484
     45          1           0        3.971000    2.848466    1.181726
     46          1           0        2.552552    4.824564    1.080896
     47          1           0        1.797280    3.562851    2.086485
     48          1           0        1.139346    3.907178   -0.648503
     49          1           0        2.787250    3.360081   -2.671363
     50          1           0        4.949208    1.491992   -3.295474
     51          1           0        4.043866   -1.247227   -1.716400
     52          1           0        3.913331   -1.737585    1.221731
     53          1           0        2.963470   -3.959513    0.624277
     54          1           0        3.041963   -3.585456   -1.745810
     55          1           0        0.871183   -2.254800   -0.805552
     56          1           0        0.478797   -4.251344    1.508802
     57          1           0        2.418831   -2.913068    2.765822
     58          1           0        1.650774   -1.205113    4.202587
     59          1           0        3.143449   -0.612719    3.443071
     60          1           0        1.756270    0.729672    2.100667
     61          1           0       -0.791391   -1.323133   -0.054840
     62          1           0       -2.976772   -3.308167   -0.902336
     63          1           0       -2.362022   -0.555315   -2.111198
     64          1           0       -4.786091   -1.454336   -0.441260
     65          1           0       -3.403003   -2.141537    1.334170
     66          1           0       -2.962962   -0.478586    2.978251
     67          1           0       -1.585862   -1.616069    2.928788
     68          1           0       -0.289618    0.092386    2.457054
     69          1           0       -5.588834    0.695792    0.451182
     70          1           0       -6.645332    0.537615   -0.980286
     71          1           0       -6.496317    2.901375   -0.168455
     72          1           0       -5.949606    2.719665   -1.834885
     73          1           0       -4.401490    4.214240   -0.713503
     74          1           0       -3.596013    2.707748   -1.140326
     75          1           0       -4.014827    1.961448    1.351139
     76          1           0       -4.529655    3.622373    1.652983
     77          1           0       -2.232853    4.405230    0.796417
     78          1           0       -2.198200    3.455539    2.298811
     79          1           0       -1.808477    2.158834   -0.321217
     80          1           0       -1.418854    1.544727    1.199783
     81          1           0       -0.526380    2.873656    0.516118
     82          1           0       -4.207502   -1.198295   -3.373885
     83          1           0       -1.773612   -3.140655   -2.913190
     84          1           0        0.133480   -4.157394   -1.565033
 ---------------------------------------------------------------------
 Rotational constants (GHZ):      0.1049000      0.0730818      0.0570195
 Leave Link  202 at Thu May 19 00:36:20 2016, MaxMem= 10737418240 cpu:         4.1
 (Enter /share/apps//g09/l301.exe)
 Standard basis: 6-311+G(d,p) (5D, 7F)
 Ernie: Thresh=  0.10000D-02 Tol=  0.10000D-05 Strict=F.
 There are  1184 symmetry adapted cartesian basis functions of A   symmetry.
 There are  1144 symmetry adapted basis functions of A   symmetry.
  1144 basis functions,  1792 primitive gaussians,  1184 cartesian basis functions
   158 alpha electrons      158 beta electrons
       nuclear repulsion energy      5862.1448185459 Hartrees.
 IExCor= 1009 DFT=T Ex+Corr=PBE1PBE ExCW=0 ScaHFX=  0.250000
 ScaDFX=  0.750000  0.750000  1.000000  1.000000 ScalE2=  1.000000  1.000000
 IRadAn=      0 IRanWt=     -1 IRanGd=            0 ICorTp=0 IEmpDi=131
 NAtoms=   84 NActive=   84 NUniq=   84 SFac= 1.00D+00 NAtFMM=   60 NAOKFM=T Big=T
 Integral buffers will be    131072 words long.
 Raffenetti 2 integral format.
 Two-electron integral symmetry is turned on.
 R6Disp:  Grimme-D3 Dispersion energy=       -0.0811957573 Hartrees.
 Nuclear repulsion after empirical dispersion term =     5862.0636227886 Hartrees.
 Leave Link  301 at Thu May 19 00:36:21 2016, MaxMem= 10737418240 cpu:         6.4
 (Enter /share/apps//g09/l302.exe)
 NPDir=0 NMtPBC=     1 NCelOv=     1 NCel=       1 NClECP=     1 NCelD=      1
         NCelK=      1 NCelE2=     1 NClLst=     1 CellRange=     0.0.
 One-electron integrals computed using PRISM.
 NBasis=  1144 RedAO= T EigKep=  1.53D-06  NBF=  1144
 NBsUse=  1144 1.00D-06 EigRej= -1.00D+00 NBFU=  1144
 Precomputing XC quadrature grid using
 IXCGrd= 4 IRadAn=           0 IRanWt=          -1 IRanGd=           0 AccXCQ= 0.00D+00.
 Generated NRdTot=       0 NPtTot=           0 NUsed=           0 NTot=          32
 NSgBfM=  1077  1077  1078  1078  1078 MxSgAt=    84 MxSgA2=    84.
 Leave Link  302 at Thu May 19 00:36:27 2016, MaxMem= 10737418240 cpu:        81.7
 (Enter /share/apps//g09/l303.exe)
 DipDrv:  MaxL=1.
 Leave Link  303 at Thu May 19 00:36:30 2016, MaxMem= 10737418240 cpu:        43.1
 (Enter /share/apps//g09/l401.exe)
 ExpMin= 4.38D-02 ExpMax= 8.59D+03 ExpMxC= 1.30D+03 IAcc=2 IRadAn=         4 AccDes= 0.00D+00
 Harris functional with IExCor= 1009 and IRadAn=       4 diagonalized for initial guess.
 HarFok:  IExCor= 1009 AccDes= 0.00D+00 IRadAn=         4 IDoV= 1 UseB2=F ITyADJ=14
 ICtDFT=  3500011 ScaDFX=  1.000000  1.000000  1.000000  1.000000
 FoFCou: FMM=F IPFlag=           0 FMFlag=      100000 FMFlg1=        2001
         NFxFlg=           0 DoJE=T BraDBF=F KetDBF=T FulRan=T
         wScrn=  0.000000 ICntrl=     500 IOpCl=  0 I1Cent=   200000004 NGrid=           0
         NMat0=    1 NMatS0=      1 NMatT0=    0 NMatD0=    1 NMtDS0=    0 NMtDT0=    0
 Petite list used in FoFCou.
 Harris En= -2159.72344126123    
 JPrj=0 DoOrth=F DoCkMO=F.
 Leave Link  401 at Thu May 19 00:36:46 2016, MaxMem= 10737418240 cpu:       241.7
 (Enter /share/apps//g09/l502.exe)
 Closed shell SCF:
 Using DIIS extrapolation, IDIIS=  1040.
 Integral symmetry usage will be decided dynamically.
 IVT=     4256630 IEndB=     4256630 NGot= 10737418240 MDV= 10734581291
 LenX= 10734581291 LenY= 10733178251
 Requested convergence on RMS density matrix=1.00D-08 within 128 cycles.
 Requested convergence on MAX density matrix=1.00D-06.
 Requested convergence on             energy=1.00D-06.
 No special actions if energy rises.
 Fock matrices will be formed incrementally for  20 cycles.

 Cycle   1  Pass 1  IDiag  1:
 FoFJK:  IHMeth= 1 ICntrl=       0 DoSepK=F KAlg= 0 I1Cent=   0 FoldK=F
 IRaf= 780000000 NMat=   1 IRICut=       1 DoRegI=T DoRafI=F ISym2E= 0.
 FoFCou: FMM=T IPFlag=           0 FMFlag=      100000 FMFlg1=        2001
         NFxFlg=           0 DoJE=F BraDBF=F KetDBF=F FulRan=T
         wScrn=  0.000000 ICntrl=       0 IOpCl=  0 I1Cent=           0 NGrid=           0
         NMat0=    1 NMatS0=      1 NMatT0=    0 NMatD0=    1 NMtDS0=    0 NMtDT0=    0
 Symmetry not used in FoFCou.
 FMM levels:  10  Number of levels for PrismC:   9
 E= -2158.72244623267    
 DIIS: error= 1.21D-02 at cycle   1 NSaved=   1.
 NSaved= 1 IEnMin= 1 EnMin= -2158.72244623267     IErMin= 1 ErrMin= 1.21D-02
 ErrMax= 1.21D-02  0.00D+00 EMaxC= 1.00D-01 BMatC= 1.01D+00 BMatP= 1.01D+00
 IDIUse=3 WtCom= 8.79D-01 WtEn= 1.21D-01
 Coeff-Com:  0.100D+01
 Coeff-En:   0.100D+01
 Coeff:      0.100D+01
 Gap=     0.274 Goal=   None    Shift=    0.000
 GapD=    0.274 DampG=1.000 DampE=0.500 DampFc=0.5000 IDamp=-1.
 Damping current iteration by 5.00D-01
 RMSDP=8.25D-03 MaxDP=1.75D+00              OVMax= 1.42D-01

 Cycle   2  Pass 1  IDiag  1:
 RMSU=  4.11D-03    CP:  1.01D+00
 E= -2159.00226779192     Delta-E=       -0.279821559251 Rises=F Damp=T
 DIIS: error= 3.06D-03 at cycle   2 NSaved=   2.
 NSaved= 2 IEnMin= 2 EnMin= -2159.00226779192     IErMin= 2 ErrMin= 3.06D-03
 ErrMax= 3.06D-03  0.00D+00 EMaxC= 1.00D-01 BMatC= 7.97D-02 BMatP= 1.01D+00
 IDIUse=3 WtCom= 9.69D-01 WtEn= 3.06D-02
 Coeff-Com:  0.587D-01 0.941D+00
 Coeff-En:   0.156D+00 0.844D+00
 Coeff:      0.617D-01 0.938D+00
 Gap=     0.296 Goal=   None    Shift=    0.000
 RMSDP=4.02D-03 MaxDP=1.19D+00 DE=-2.80D-01 OVMax= 8.09D-02

 Cycle   3  Pass 1  IDiag  1:
 RMSU=  2.43D-03    CP:  9.26D-01  1.04D+00
 E= -2159.36708513795     Delta-E=       -0.364817346030 Rises=F Damp=F
 DIIS: error= 3.05D-03 at cycle   3 NSaved=   3.
 NSaved= 3 IEnMin= 3 EnMin= -2159.36708513795     IErMin= 3 ErrMin= 3.05D-03
 ErrMax= 3.05D-03  0.00D+00 EMaxC= 1.00D-01 BMatC= 4.41D-02 BMatP= 7.97D-02
 IDIUse=3 WtCom= 9.69D-01 WtEn= 3.05D-02
 Coeff-Com: -0.683D-01 0.408D+00 0.660D+00
 Coeff-En:   0.000D+00 0.000D+00 0.100D+01
 Coeff:     -0.662D-01 0.396D+00 0.671D+00
 Gap=     0.270 Goal=   None    Shift=    0.000
 RMSDP=1.52D-03 MaxDP=3.88D-01 DE=-3.65D-01 OVMax= 1.64D-02

 Cycle   4  Pass 1  IDiag  1:
 RMSU=  1.12D-03    CP:  9.48D-01  1.16D+00  8.50D-01
 E= -2159.39474431677     Delta-E=       -0.027659178828 Rises=F Damp=F
 DIIS: error= 1.09D-03 at cycle   4 NSaved=   4.
 NSaved= 4 IEnMin= 4 EnMin= -2159.39474431677     IErMin= 4 ErrMin= 1.09D-03
 ErrMax= 1.09D-03  0.00D+00 EMaxC= 1.00D-01 BMatC= 5.84D-03 BMatP= 4.41D-02
 IDIUse=3 WtCom= 9.89D-01 WtEn= 1.09D-02
 Coeff-Com: -0.366D-01 0.124D+00 0.342D+00 0.571D+00
 Coeff-En:   0.000D+00 0.000D+00 0.761D-01 0.924D+00
 Coeff:     -0.362D-01 0.122D+00 0.339D+00 0.575D+00
 Gap=     0.264 Goal=   None    Shift=    0.000
 RMSDP=1.06D-03 MaxDP=3.47D-01 DE=-2.77D-02 OVMax= 6.05D-03

 Cycle   5  Pass 1  IDiag  1:
 RMSU=  2.60D-04    CP:  9.23D-01  1.12D+00  8.63D-01  5.98D-01
 E= -2159.39977160352     Delta-E=       -0.005027286743 Rises=F Damp=F
 DIIS: error= 2.53D-04 at cycle   5 NSaved=   5.
 NSaved= 5 IEnMin= 5 EnMin= -2159.39977160352     IErMin= 5 ErrMin= 2.53D-04
 ErrMax= 2.53D-04  0.00D+00 EMaxC= 1.00D-01 BMatC= 2.36D-04 BMatP= 5.84D-03
 IDIUse=3 WtCom= 9.97D-01 WtEn= 2.53D-03
 Coeff-Com: -0.114D-01 0.255D-01 0.100D+00 0.244D+00 0.642D+00
 Coeff-En:   0.000D+00 0.000D+00 0.000D+00 0.000D+00 0.100D+01
 Coeff:     -0.114D-01 0.255D-01 0.100D+00 0.243D+00 0.643D+00
 Gap=     0.263 Goal=   None    Shift=    0.000
 RMSDP=1.24D-04 MaxDP=3.01D-02 DE=-5.03D-03 OVMax= 1.50D-03

 Cycle   6  Pass 1  IDiag  1:
 RMSU=  5.74D-05    CP:  9.26D-01  1.12D+00  8.76D-01  6.13D-01  7.77D-01
 E= -2159.39994680154     Delta-E=       -0.000175198019 Rises=F Damp=F
 DIIS: error= 5.62D-05 at cycle   6 NSaved=   6.
 NSaved= 6 IEnMin= 6 EnMin= -2159.39994680154     IErMin= 6 ErrMin= 5.62D-05
 ErrMax= 5.62D-05  0.00D+00 EMaxC= 1.00D-01 BMatC= 1.81D-05 BMatP= 2.36D-04
 IDIUse=1 WtCom= 1.00D+00 WtEn= 0.00D+00
 Coeff-Com: -0.375D-02 0.661D-02 0.325D-01 0.919D-01 0.315D+00 0.558D+00
 Coeff:     -0.375D-02 0.661D-02 0.325D-01 0.919D-01 0.315D+00 0.558D+00
 Gap=     0.264 Goal=   None    Shift=    0.000
 RMSDP=2.79D-05 MaxDP=9.02D-03 DE=-1.75D-04 OVMax= 4.03D-04

 Cycle   7  Pass 1  IDiag  1:
 RMSU=  1.54D-05    CP:  9.26D-01  1.12D+00  8.77D-01  6.21D-01  7.80D-01
                    CP:  7.68D-01
 E= -2159.39996021120     Delta-E=       -0.000013409664 Rises=F Damp=F
 DIIS: error= 1.80D-05 at cycle   7 NSaved=   7.
 NSaved= 7 IEnMin= 7 EnMin= -2159.39996021120     IErMin= 7 ErrMin= 1.80D-05
 ErrMax= 1.80D-05  0.00D+00 EMaxC= 1.00D-01 BMatC= 1.43D-06 BMatP= 1.81D-05
 IDIUse=1 WtCom= 1.00D+00 WtEn= 0.00D+00
 Coeff-Com: -0.996D-03 0.137D-02 0.888D-02 0.285D-01 0.110D+00 0.278D+00
 Coeff-Com:  0.575D+00
 Coeff:     -0.996D-03 0.137D-02 0.888D-02 0.285D-01 0.110D+00 0.278D+00
 Coeff:      0.575D+00
 Gap=     0.264 Goal=   None    Shift=    0.000
 RMSDP=9.04D-06 MaxDP=1.35D-03 DE=-1.34D-05 OVMax= 1.34D-04

 Cycle   8  Pass 1  IDiag  1:
 RMSU=  6.91D-06    CP:  9.26D-01  1.12D+00  8.76D-01  6.24D-01  7.88D-01
                    CP:  7.34D-01  7.58D-01
 E= -2159.39996115818     Delta-E=       -0.000000946976 Rises=F Damp=F
 DIIS: error= 5.59D-06 at cycle   8 NSaved=   8.
 NSaved= 8 IEnMin= 8 EnMin= -2159.39996115818     IErMin= 8 ErrMin= 5.59D-06
 ErrMax= 5.59D-06  0.00D+00 EMaxC= 1.00D-01 BMatC= 1.52D-07 BMatP= 1.43D-06
 IDIUse=1 WtCom= 1.00D+00 WtEn= 0.00D+00
 Coeff-Com:  0.112D-04-0.204D-03 0.796D-04 0.196D-02 0.113D-01 0.578D-01
 Coeff-Com:  0.280D+00 0.649D+00
 Coeff:      0.112D-04-0.204D-03 0.796D-04 0.196D-02 0.113D-01 0.578D-01
 Coeff:      0.280D+00 0.649D+00
 Gap=     0.264 Goal=   None    Shift=    0.000
 RMSDP=3.37D-06 MaxDP=7.55D-04 DE=-9.47D-07 OVMax= 3.93D-05

 Cycle   9  Pass 1  IDiag  1:
 RMSU=  2.01D-06    CP:  9.26D-01  1.12D+00  8.77D-01  6.23D-01  7.89D-01
                    CP:  7.50D-01  8.13D-01  8.40D-01
 E= -2159.39996127055     Delta-E=       -0.000000112372 Rises=F Damp=F
 DIIS: error= 1.60D-06 at cycle   9 NSaved=   9.
 NSaved= 9 IEnMin= 9 EnMin= -2159.39996127055     IErMin= 9 ErrMin= 1.60D-06
 ErrMax= 1.60D-06  0.00D+00 EMaxC= 1.00D-01 BMatC= 1.09D-08 BMatP= 1.52D-07
 IDIUse=1 WtCom= 1.00D+00 WtEn= 0.00D+00
 Coeff-Com:  0.689D-04-0.181D-03-0.572D-03-0.101D-02-0.257D-02 0.656D-02
 Coeff-Com:  0.873D-01 0.299D+00 0.611D+00
 Coeff:      0.689D-04-0.181D-03-0.572D-03-0.101D-02-0.257D-02 0.656D-02
 Coeff:      0.873D-01 0.299D+00 0.611D+00
 Gap=     0.264 Goal=   None    Shift=    0.000
 RMSDP=6.43D-07 MaxDP=2.50D-04 DE=-1.12D-07 OVMax= 9.90D-06

 Cycle  10  Pass 1  IDiag  1:
 RMSU=  3.87D-07    CP:  9.26D-01  1.12D+00  8.77D-01  6.23D-01  7.89D-01
                    CP:  7.54D-01  8.20D-01  8.45D-01  8.04D-01
 E= -2159.39996127880     Delta-E=       -0.000000008252 Rises=F Damp=F
 DIIS: error= 4.20D-07 at cycle  10 NSaved=  10.
 NSaved=10 IEnMin=10 EnMin= -2159.39996127880     IErMin=10 ErrMin= 4.20D-07
 ErrMax= 4.20D-07  0.00D+00 EMaxC= 1.00D-01 BMatC= 1.00D-09 BMatP= 1.09D-08
 IDIUse=1 WtCom= 1.00D+00 WtEn= 0.00D+00
 Coeff-Com:  0.274D-04-0.625D-04-0.263D-03-0.573D-03-0.194D-02-0.114D-02
 Coeff-Com:  0.193D-01 0.920D-01 0.295D+00 0.598D+00
 Coeff:      0.274D-04-0.625D-04-0.263D-03-0.573D-03-0.194D-02-0.114D-02
 Coeff:      0.193D-01 0.920D-01 0.295D+00 0.598D+00
 Gap=     0.264 Goal=   None    Shift=    0.000
 RMSDP=1.89D-07 MaxDP=4.90D-05 DE=-8.25D-09 OVMax= 3.15D-06

 Cycle  11  Pass 1  IDiag  1:
 RMSU=  1.15D-07    CP:  9.26D-01  1.12D+00  8.77D-01  6.23D-01  7.89D-01
                    CP:  7.53D-01  8.21D-01  8.57D-01  8.06D-01  7.45D-01
 E= -2159.39996127959     Delta-E=       -0.000000000790 Rises=F Damp=F
 DIIS: error= 1.88D-07 at cycle  11 NSaved=  11.
 NSaved=11 IEnMin=11 EnMin= -2159.39996127959     IErMin=11 ErrMin= 1.88D-07
 ErrMax= 1.88D-07  0.00D+00 EMaxC= 1.00D-01 BMatC= 1.01D-10 BMatP= 1.00D-09
 IDIUse=1 WtCom= 1.00D+00 WtEn= 0.00D+00
 Coeff-Com:  0.812D-05-0.172D-04-0.921D-04-0.211D-03-0.766D-03-0.951D-03
 Coeff-Com:  0.336D-02 0.240D-01 0.102D+00 0.306D+00 0.567D+00
 Coeff:      0.812D-05-0.172D-04-0.921D-04-0.211D-03-0.766D-03-0.951D-03
 Coeff:      0.336D-02 0.240D-01 0.102D+00 0.306D+00 0.567D+00
 Gap=     0.264 Goal=   None    Shift=    0.000
 RMSDP=6.18D-08 MaxDP=8.47D-06 DE=-7.90D-10 OVMax= 1.06D-06

 Cycle  12  Pass 1  IDiag  1:
 RMSU=  4.49D-08    CP:  9.26D-01  1.12D+00  8.77D-01  6.23D-01  7.89D-01
                    CP:  7.53D-01  8.21D-01  8.61D-01  8.09D-01  7.61D-01
                    CP:  7.70D-01
 E= -2159.39996127963     Delta-E=       -0.000000000044 Rises=F Damp=F
 DIIS: error= 5.09D-08 at cycle  12 NSaved=  12.
 NSaved=12 IEnMin=12 EnMin= -2159.39996127963     IErMin=12 ErrMin= 5.09D-08
 ErrMax= 5.09D-08  0.00D+00 EMaxC= 1.00D-01 BMatC= 7.88D-12 BMatP= 1.01D-10
 IDIUse=1 WtCom= 1.00D+00 WtEn= 0.00D+00
 Coeff-Com:  0.117D-06 0.870D-07-0.103D-04-0.259D-04-0.111D-03-0.306D-03
 Coeff-Com: -0.993D-03-0.960D-03 0.934D-02 0.653D-01 0.258D+00 0.670D+00
 Coeff:      0.117D-06 0.870D-07-0.103D-04-0.259D-04-0.111D-03-0.306D-03
 Coeff:     -0.993D-03-0.960D-03 0.934D-02 0.653D-01 0.258D+00 0.670D+00
 Gap=     0.264 Goal=   None    Shift=    0.000
 RMSDP=2.19D-08 MaxDP=6.35D-06 DE=-4.37D-11 OVMax= 2.63D-07

 Cycle  13  Pass 1  IDiag  1:
 RMSU=  1.22D-08    CP:  9.26D-01  1.12D+00  8.77D-01  6.23D-01  7.89D-01
                    CP:  7.53D-01  8.21D-01  8.60D-01  8.15D-01  7.63D-01
                    CP:  7.76D-01  7.98D-01
 E= -2159.39996127963     Delta-E=        0.000000000007 Rises=F Damp=F
 DIIS: error= 1.29D-08 at cycle  13 NSaved=  13.
 NSaved=13 IEnMin=12 EnMin= -2159.39996127963     IErMin=13 ErrMin= 1.29D-08
 ErrMax= 1.29D-08  0.00D+00 EMaxC= 1.00D-01 BMatC= 5.13D-13 BMatP= 7.88D-12
 IDIUse=1 WtCom= 1.00D+00 WtEn= 0.00D+00
 Coeff-Com: -0.415D-06 0.102D-05 0.836D-06 0.911D-06-0.339D-05-0.722D-04
 Coeff-Com: -0.607D-03-0.183D-02-0.208D-02 0.102D-01 0.776D-01 0.294D+00
 Coeff-Com:  0.622D+00
 Coeff:     -0.415D-06 0.102D-05 0.836D-06 0.911D-06-0.339D-05-0.722D-04
 Coeff:     -0.607D-03-0.183D-02-0.208D-02 0.102D-01 0.776D-01 0.294D+00
 Coeff:      0.622D+00
 Gap=     0.264 Goal=   None    Shift=    0.000
 RMSDP=6.24D-09 MaxDP=1.25D-06 DE= 7.28D-12 OVMax= 8.58D-08

 Cycle  14  Pass 1  IDiag  1:
[...]
 00011788,0.00020054,0.00009694,-0.00000134,0.00001651,-0.00000052,0.00
 000951,-0.00000415,0.00001034,-0.00000111,-0.00000239,0.00001291,0.000
 03845,-0.00002676,-0.00002385,-0.00007425,0.00004373,-0.00001706,0.000
 12094,-0.00181959,0.00016927,-0.22935450,-0.09499589,-0.23626211,-0.00
 060221,0.00062285,0.00025652,0.00000226,0.00000232,0.00000913,0.000007
 84,-0.00002479,0.00000217,0.00000747,0.00000697,0.00000035,0.00000091,
 0.00000811,-0.00000146,0.00000331,0.00000470,-0.00000031,-0.00000469,0
 .00000175,-0.00000323,-0.00000228,-0.00000217,0.00000138,0.00002227,-0
 .00002788,-0.00002022,0.00000040,-0.00003458,0.00000287,-0.00002677,-0
 .00002356,0.00000638,-0.00005536,-0.00004348,-0.00003809,0.00000203,0.
 00000291,-0.00000291,-0.00009007,-0.00003125,0.00002937,-0.00012408,0.
 00000092,-0.00012471,0.00013190,0.00031011,-0.00024382,0.00003863,-0.0
 0000915,-0.00003149,0.00000626,-0.00000373,0.00000282,-0.00000303,0.00
 000236,0.00000316,0.00000172,0.00000344,-0.00000091,0.00000185,-0.0000
 1537,-0.00001404,0.00004926,0.00012189,-0.00014338,-0.00054938,0.00014
 012,0.00141148,-0.00029845,-0.00059571,-0.00021869,-0.00004820,0.00001
 432,0.00009248,0.00003490,-0.00001600,-0.00006597,0.00006311,0.0001162
 1,0.00014671,-0.00002368,-0.00003161,-0.00004245,-0.00000062,-0.000008
 70,-0.00001712,0.00002867,-0.00002629,-0.00004343,-0.00000455,-0.00000
 062,0.00000521,-0.00000151,-0.00001478,-0.00000344,-0.00001613,0.00001
 022,-0.00000552,-0.00000664,-0.00001631,-0.00000511,0.00001171,0.00002
 197,-0.00000275,0.00001094,0.00000581,0.00000981,-0.00000547,-0.000003
 74,-0.00000418,-0.00000086,0.00000444,0.00000487,-0.00001059,-0.000003
 29,-0.00000310,0.00005667,0.00001804,0.00000620,0.00005906,-0.00008492
 ,0.00009061,0.00005755,0.00000534,-0.00002872,0.00004787,-0.00088871,-
 0.00129312,0.21759518,0.00004183,-0.00002610,0.00001457,-0.00001674,0.
 00005749,-0.00003285,-0.00011104,0.00005910,-0.00001906,-0.00000494,-0
 .00001017,0.00002345,-0.00006412,-0.00000372,-0.00003079,-0.00000447,-
 0.00000810,-0.00000188,-0.00007897,-0.00001059,-0.00003734,0.00011199,
 0.00004275,0.00001564,0.00008863,0.00002141,0.00002274,0.00004135,-0.0
 0000306,-0.00001939,0.00006264,-0.00008554,0.00001179,0.00003143,-0.00
 008579,0.00006794,-0.00003334,0.00008670,-0.00005008,-0.00008050,-0.00
 004364,-0.00003231,0.00007288,-0.00007617,-0.00003166,-0.00044573,-0.0
 0000448,-0.00013612,-0.00037069,-0.00006233,-0.00014243,0.00007652,-0.
 00003465,-0.00001505,-0.00003355,-0.00000242,0.00000029,-0.00002476,0.
 00003945,-0.00003514,0.00005246,-0.00003473,0.00004442,0.00018205,0.00
 045634,0.00077647,0.00392314,-0.00294409,-0.00262257,-0.01234701,-0.00
 901280,-0.01783844,-0.00098166,-0.00154362,-0.00281979,-0.00037098,-0.
 00067979,-0.00149995,0.00053857,0.00023480,0.00103593,-0.00151086,0.00
 044331,-0.00130526,0.00051092,-0.00010912,-0.00020306,-0.00000012,-0.0
 0008878,0.00015788,-0.00054935,0.00074429,0.00063120,0.00036087,-0.000
 17917,-0.00027382,-0.00005904,0.00000971,0.00006255,0.00000967,-0.0000
 2728,-0.00004366,-0.00000660,0.00000391,-0.00000719,0.00000432,-0.0000
 2831,0.00000549,0.00004920,0.00000010,0.00003017,-0.00131820,0.0007140
 9,0.00120648,-0.07105023,-0.06120653,-0.11508235,0.00176482,-0.0012323
 6,0.00008451,0.00001308,-0.00000269,0.00001372,0.00001619,-0.00001217,
 0.00001188,0.00001154,0.00000535,-0.00000059,0.00001156,0.00000524,0.0
 0000465,0.00000946,-0.00000156,0.00000376,0.00001418,0.00000519,-0.000
 00090,0.00000015,-0.00000110,0.00000473,-0.00003310,-0.00002130,0.0000
 0141,-0.00003757,-0.00001706,0.00000953,-0.00002538,0.00000756,0.00001
 241,-0.00001552,0.00005895,-0.00002509,0.00000731,-0.00000750,0.000003
 50,0.00002423,0.00000946,0.00000677,0.00000571,0.00008954,0.00005198,-
 0.00006152,-0.00007775,-0.00006843,0.00004282,-0.00000699,0.00003730,0
 .00000610,-0.00001054,0.00001122,-0.00000232,-0.00000261,0.00000307,0.
 00000802,-0.00000022,-0.00000156,-0.00001446,0.00001131,-0.00003228,0.
 00013929,0.00019935,0.00026142,-0.00000527,0.00096818,0.00079937,0.000
 17234,-0.00061983,0.00019877,-0.00015259,0.00012764,0.00018481,0.00003
 763,-0.00005821,-0.00000052,-0.00010632,-0.00009219,-0.00011921,0.0000
 3539,0.00003440,0.00003563,-0.00004931,-0.00000493,-0.00000594,-0.0000
 3711,0.00002814,0.00005652,-0.00005208,0.00001108,0.00001639,-0.000007
 60,0.00005289,0.00000145,0.00002350,-0.00000603,-0.00000749,0.00000490
 ,0.00003093,0.00000884,-0.00003024,-0.00002764,0.00002384,-0.00000591,
 -0.00001654,-0.00002636,-0.00000010,0.00001347,0.00000979,-0.00000217,
 -0.00000129,-0.00000780,0.00000577,0.00000975,0.00000885,-0.00003158,-
 0.00010300,-0.00003996,-0.00007171,0.00007231,-0.00013304,-0.00009014,
 -0.00004119,0.00002276,0.00005535,0.00001456,0.00075204,0.08243990,0.0
 7132389,0.00002637,0.00012792,-0.00008592,-0.00011470,-0.00021380,0.00
 016103,0.00004390,0.00003204,0.00002184,-0.00001943,-0.00000828,0.0000
 6856,0.00004671,0.00000045,0.00003154,-0.00003474,-0.00007348,0.000051
 41,0.00000533,0.00000263,0.00000319,0.00001685,0.00002479,-0.00004709,
 -0.00004442,-0.00001317,-0.00007398,-0.00001119,-0.00001280,-0.0001078
 8,-0.00000817,0.00003009,-0.00012030,0.00012308,0.00025089,-0.00017147
 ,0.00003879,-0.00016417,0.00003322,-0.00019742,-0.00005016,0.00036153,
 0.00017986,0.00002791,-0.00027335,0.00034177,0.00003425,-0.00011932,-0
 .00037651,-0.00018023,-0.00024511,0.00031149,0.00025471,0.00018297,-0.
 00022232,-0.00001209,-0.00002367,0.00001874,-0.00006686,-0.00000636,0.
 00002525,0.00009606,-0.00002909,0.00053379,0.00015251,0.00078139,0.003
 90696,-0.00111054,-0.00252350,-0.01537121,-0.01254261,-0.02389661,-0.0
 0039002,0.00022991,0.00314713,-0.00034443,-0.00042118,-0.00070332,-0.0
 0001370,0.00011175,-0.00012280,-0.00109558,-0.00063745,-0.00039814,0.0
 0032903,-0.00016653,-0.00019734,0.00000144,0.00014226,0.00006405,-0.00
 044695,0.00059641,0.00006497,0.00015426,0.00000398,-0.00010989,-0.0000
 3083,0.00000599,0.00004834,-0.00001352,0.00000875,0.00000041,0.0000039
 8,-0.00001180,0.00000602,0.00001201,-0.00002693,-0.00000834,0.00000785
 ,0.00006779,-0.00005033,0.00033052,-0.00025197,-0.00178198,-0.19516256
 ,-0.12248537,-0.27898106,0.00081325,0.00015367,0.00014545,0.00001073,0
 .00001486,-0.00001290,-0.00000940,0.00000732,0.00001789,-0.00001092,-0
 .00000082,-0.00000734,-0.00000718,0.00000291,-0.00000754,0.00000613,0.
 00000450,-0.00000495,-0.00000034,0.00000802,-0.00000117,0.00000006,-0.
 00000845,-0.00000610,-0.00000112,0.00000666,0.00004837,0.00002910,0.00
 001893,0.00003067,0.00002011,0.00001097,0.00003651,-0.00001805,-0.0000
 7464,0.00013310,0.00002492,0.00004509,-0.00000350,0.00009266,0.0000037
 1,-0.00001661,-0.00007583,0.00000866,0.00015814,-0.00032958,-0.0002266
 7,0.00005088,-0.00000032,-0.00000072,0.00003560,0.00002744,-0.00000895
 ,-0.00000366,-0.00000778,0.00000074,-0.00000149,0.00001162,0.00001810,
 -0.00000187,-0.00002893,-0.00005534,0.00005950,0.00010949,0.00008030,0
 .00023991,-0.00075791,0.00053235,0.00011098,0.00005091,0.00012124,-0.0
 0002803,0.00007754,0.00000658,-0.00007198,-0.00000034,0.00005928,-0.00
 004341,-0.00006824,-0.00002529,-0.00006088,0.00000727,-0.00000435,-0.0
 0001240,-0.00002532,-0.00005230,-0.00002664,-0.00000950,-0.00000566,-0
 .00000098,-0.00001771,0.00000255,0.00001942,-0.00000037,0.00002493,-0.
 00000848,-0.00000466,0.00000623,-0.00001405,0.00000141,0.00001737,0.00
 000077,0.00000392,-0.00001583,0.00001474,0.00000317,-0.00000565,-0.000
 01562,-0.00000297,0.00000529,-0.00000275,-0.00000145,0.00000934,-0.000
 00162,-0.00000166,-0.00000283,0.00000165,-0.00000754,-0.00003591,0.000
 03837,0.00001656,-0.00010724,0.00006730,-0.00004181,-0.00003150,0.0000
 3999,-0.00011075,0.00042039,0.00024756,0.20979216,0.13475171,0.3044805
 0,-0.00012446,0.00059241,-0.00003300,-0.00012875,-0.00091029,0.0002999
 5,0.00018659,-0.00017697,-0.00002679,-0.00005206,-0.00007953,0.0000980
 6,0.00015205,-0.00003026,0.00003981,-0.00011437,-0.00022153,0.00009427
 ,0.00020575,-0.00001677,0.00005224,-0.00030114,-0.00000109,0.00001227,
 -0.00017775,0.00010093,-0.00006088,0.00000527,0.00010584,-0.00014766,0
 .00001714,0.00052933,-0.00018672,0.00039993,0.00111404,-0.00029773,-0.
 00013566,-0.00041214,-0.00000385,-0.00042265,-0.00133685,-0.00023939,0
 .00112116,0.00046108,-0.00041207,-0.01120897,-0.00530681,-0.00443740,0
 .00504164,0.00041753,-0.00133054,-0.00087612,0.00151896,0.00183590,-0.
 00040042,-0.00006807,-0.00031943,0.00005360,-0.00040369,0.00007722,-0.
 00034386,0.00033778,-0.00003641,-0.00317320,0.00059371,-0.00102105,0.0
 0161206,0.00012277,0.00094569,-0.00320427,0.00339582,0.00659499,0.0008
 6380,-0.00051550,-0.00165433,0.00020915,0.00081954,0.00124555,-0.00046
 412,-0.00023560,-0.00050298,-0.00044518,-0.00017334,-0.00011090,0.0005
 8100,0.00017049,-0.00004796,-0.00069137,-0.00020647,0.00000197,0.00064
 155,-0.00093432,-0.00040592,-0.00034721,0.00019497,0.00028557,0.000060
 80,0.00000565,-0.00006679,0.00000264,0.00000337,0.00003461,0.00000746,
 0.00001822,-0.00000022,0.00003799,-0.00000545,-0.00002163,-0.00015550,
 -0.00004271,0.00004776,0.00044823,-0.00041882,-0.00002174,0.00119621,-
 0.00515031,-0.00153784,-0.42883833,0.01560254,-0.15955796,0.00003549,0
 .00006408,-0.00002438,-0.00001749,-0.00001717,0.00001409,-0.00001267,0
 .00000364,-0.00000421,-0.00001933,0.00002689,-0.00001975,0.00000887,0.
 00002038,-0.00001136,-0.00003769,0.00001320,-0.00000807,-0.00000296,-0
 .00001239,-0.00000337,0.00008479,-0.00004572,-0.00003246,0.00005698,-0
 .00004566,0.00002941,-0.00001805,-0.00005280,0.00007448,-0.00021860,-0
 .00052464,0.00034226,0.00012227,0.00012848,-0.00002661,0.00008698,-0.0
 0006410,0.00007949,-0.00128573,-0.00000292,0.00014892,0.00085592,0.003
 14020,0.00064679,-0.00019554,-0.00002235,-0.00014531,-0.00000097,0.000
 00739,-0.00004608,-0.00000861,0.00004815,0.00002834,-0.00002479,0.0000
 4054,-0.00002653,0.00004444,-0.00011678,-0.00002538,0.00009124,-0.0002
 0417,-0.00006215,0.00031598,-0.00010470,-0.00054887,-0.00011156,0.0000
 0524,0.00003348,-0.00001382,-0.00008146,-0.00003447,-0.00005506,0.0000
 3445,0.00008516,-0.00009558,-0.00006942,-0.00006490,0.00004154,-0.0000
 2841,-0.00005779,0.00062450,-0.00014036,-0.00000296,0.00002959,-0.0000
 0511,-0.00004258,0.00004031,-0.00001909,-0.00002550,0.00000331,-0.0000
 5743,0.00000430,-0.00002320,-0.00000202,0.00001125,-0.00000623,-0.0000
 4089,-0.00000536,0.00002250,0.00004465,-0.00002152,0.00000219,0.000024
 51,0.00003563,-0.00000594,-0.00001773,-0.00000595,0.00000623,-0.000004
 64,0.00001512,-0.00000550,-0.00000336,-0.00001577,0.00008776,0.0001218
 9,-0.00000187,0.00010814,0.00003608,0.00005195,0.00026281,0.00007727,-
 0.00009946,-0.00014131,0.00000104,-0.00017507,-0.00044486,-0.00071282,
 -0.00211904,0.43857504,0.00009353,-0.00010535,0.00001754,-0.00001286,0
 .00014952,-0.00004139,-0.00010337,0.00004344,-0.00003665,-0.00000121,0
 .00000081,0.00002342,-0.00005566,-0.00000177,-0.00002440,0.00000323,0.
 00000348,-0.00001120,-0.00008917,-0.00000895,-0.00003042,0.00013093,0.
 00004708,-0.00000470,0.00007380,0.00000623,0.00000751,0.00003236,-0.00
 001117,-0.00000621,0.00007323,-0.00007693,0.00003762,0.00032452,-0.000
 03619,0.00025266,-0.00255172,0.00074789,-0.00010381,-0.00085218,-0.007
 91882,-0.00314230,0.00048569,0.00026405,-0.00007979,-0.04268135,-0.004
 44569,-0.01748719,-0.00239349,-0.00065261,-0.00083896,0.00078936,-0.00
 022796,-0.00018205,-0.00029204,0.00008414,0.00031474,-0.00001895,0.000
 15116,-0.00010775,0.00020753,-0.00008773,0.00006049,0.00129626,-0.0002
 0983,0.00074108,-0.00019481,-0.00034083,-0.00067204,0.00156122,-0.0018
 8266,-0.00339973,-0.00032453,0.00019091,0.00086494,0.00013640,-0.00036
 225,-0.00054134,-0.00002784,0.00016880,0.00015165,0.00034428,-0.000166
 21,0.00003547,-0.00029886,-0.00008864,-0.00001090,0.00028275,0.0001872
 8,0.00004622,-0.00045213,0.00053938,0.00017929,0.00024113,-0.00011843,
 -0.00016464,-0.00003374,0.00000082,0.00003772,0.00000438,-0.00001024,-
 0.00002033,-0.00000551,-0.00000940,0.00000715,0.00001756,-0.00004369,-
 0.00001118,0.00003471,0.00008307,-0.00004095,-0.00050790,0.00018995,-0
 .00011478,-0.00232637,-0.00211542,-0.00036665,0.06101711,-0.04488066,0
 .01346521,0.00006412,0.00002594,0.00000974,0.00002140,-0.00002272,0.00
 003132,0.00001358,0.00000799,-0.00000321,0.00000900,0.00000306,0.00000
 434,0.00000872,-0.00000107,0.00000322,0.00001700,0.00000358,-0.0000008
 9,-0.00000131,-0.00000186,0.00000215,-0.00003007,-0.00001098,0.0000183
 1,-0.00002338,-0.00000796,0.00001017,-0.00002020,0.00000652,0.00000592
 ,-0.00004472,0.00004712,-0.00005765,-0.00012252,-0.00069600,-0.0002286
 8,0.00033260,0.00011680,-0.00015176,-0.00000067,-0.00002975,0.00036331
 ,-0.00081482,0.00014200,0.00074032,0.00012211,-0.00000261,0.00025269,0
 .00003939,-0.00001539,0.00000118,0.00000338,-0.00003495,-0.00002024,0.
 00004118,0.00002409,0.00001889,-0.00005136,0.00000558,-0.00000412,-0.0
 0005529,-0.00022417,-0.00005460,-0.00057603,0.00030805,0.00050226,0.00
 005448,-0.00007544,0.00001037,-0.00002167,0.00003519,0.00002182,-0.000
 05717,0.00003029,0.00002954,0.00003643,0.00007228,0.00004983,0.0000029
 5,-0.00000066,-0.00001128,-0.00028613,-0.00000095,-0.00004456,-0.00000
 867,0.00000425,0.00002029,-0.00003620,0.00000862,0.00001157,-0.0000038
 5,0.00003380,0.00000167,0.00001033,0.00000011,-0.00001116,0.00000115,0
 .00002412,0.00000092,-0.00001649,-0.00001923,0.00002154,0.00000642,-0.
 00001632,-0.00002447,-0.00000323,0.00001383,0.00000321,-0.00000545,0.0
 0000879,-0.00000710,-0.00000170,0.00000082,0.00000869,-0.00001059,-0.0
 0008257,0.00000828,-0.00001996,-0.00010035,0.00002634,-0.00011859,-0.0
 0005840,0.00004733,0.00007807,0.00001265,0.00012166,-0.00155816,0.0026
 8305,0.00056878,-0.01090035,0.05872625,-0.00001154,0.00019680,-0.00012
 278,-0.00009899,-0.00032395,0.00020332,0.00012765,0.00000269,0.0000438
 3,-0.00003435,-0.00000657,0.00005780,0.00006830,0.00000386,0.00004010,
 -0.00003899,-0.00009631,0.00006332,0.00005610,0.00000335,0.00002501,-0
 .00006256,0.00000246,-0.00004305,-0.00006986,-0.00000955,-0.00007058,-
 0.00001542,-0.00000359,-0.00011165,-0.00004086,0.00013595,-0.00021059,
 0.00001944,0.00034249,-0.00034541,0.00029665,-0.00020894,0.00044040,0.
 00132701,-0.00030824,-0.00051864,0.00078554,0.00141617,0.00004596,-0.0
 1426847,-0.00261253,-0.00618075,-0.00325931,-0.00244547,-0.00228194,0.
 00086267,0.00085690,0.00051518,-0.00039860,0.00000280,-0.00005914,0.00
 012739,-0.00020428,0.00001974,-0.00006583,0.00022120,-0.00007989,-0.00
 056460,0.00232100,0.00065307,0.00179110,-0.00211180,0.00119996,0.00019
 551,0.00014357,0.00433666,0.00068243,-0.00044408,-0.00095876,0.0003253
 0,0.00027822,0.00084934,-0.00054688,0.00017091,-0.00040933,0.00001506,
 -0.00018200,-0.00010003,0.00012115,-0.00006775,0.00001038,-0.00014697,
 0.00013452,-0.00008491,0.00017874,-0.00028436,-0.00027542,-0.00009239,
 0.00003419,0.00011260,0.00002769,-0.00000604,-0.00002682,-0.00000200,0
 .00001113,0.00001814,0.00000257,-0.00000523,0.00000735,0.00001893,-0.0
 0001387,-0.00001255,-0.00004108,0.00005647,-0.00005733,0.00003036,-0.0
 0014517,-0.00029213,0.00085455,-0.00251333,-0.00789525,-0.15047506,-0.
 00436999,-0.07137883,-0.00001583,0.00000703,-0.00002245,-0.00002720,0.
 00003178,-0.00000492,-0.00001892,-0.00000713,-0.00000305,-0.00000959,0
 .00000364,-0.00001072,0.00000265,0.00000677,-0.00000413,-0.00000980,0.
 00000752,-0.00000317,0.00000146,-0.00001102,-0.00000823,0.00001515,0.0
 0000746,0.00003184,0.00002820,0.00001568,0.00002315,0.00002286,0.00001
 028,0.00003889,0.00000334,-0.00021534,0.00030231,0.00007973,0.00017830
 ,-0.00001230,0.00008715,0.00002013,-0.00000453,-0.00082805,-0.00083898
 ,0.00139738,0.00106528,0.00087765,0.00145119,-0.00016174,0.00002856,-0
 .00009844,0.00005234,-0.00001153,-0.00000619,-0.00001050,0.00000559,-0
 .00000653,-0.00000092,0.00005956,0.00000818,-0.00002528,-0.00008944,0.
 00010603,-0.00003698,0.00020481,-0.00012164,0.00065620,-0.00022022,-0.
 00042606,-0.00009827,0.00008064,-0.00003214,0.00000327,-0.00004047,-0.
 00003303,0.00004032,0.00000873,0.00000603,-0.00003743,0.00001734,-0.00
 002099,-0.00000772,-0.00004583,-0.00010066,0.00012875,-0.00009976,-0.0
 0000471,0.00001456,-0.00000962,-0.00002340,0.00000946,-0.00000624,-0.0
 0000540,0.00000262,-0.00001920,0.00000286,-0.00001103,0.00000251,-0.00
 000247,-0.00000371,-0.00000643,-0.00000455,0.00000976,0.00000723,-0.00
 000320,0.00000817,0.00000551,0.00000487,-0.00000267,-0.00000316,-0.000
 00340,-0.00000109,0.00000638,0.00000274,-0.00000440,-0.00000796,-0.000
 00379,0.00001743,0.00002932,0.00003249,0.00006433,-0.00011934,0.000144
 13,0.00003098,0.00000484,0.00000950,-0.00008823,0.00000240,-0.00002509
 ,-0.00149644,0.00124969,-0.00057407,0.16287141,0.00890074,0.08088127\\
 0.00001211,-0.00002024,-0.00000063,-0.00001592,0.00002149,0.00000048,0
 .00000285,-0.00000767,0.00000339,0.00001243,-0.00000042,-0.00000452,-0
 .00001879,0.00000154,-0.00001366,0.00000930,-0.00001484,0.00000711,-0.
 00002280,0.00000402,-0.00000344,0.00000503,0.00000239,0.00000667,0.000
 01540,-0.00000007,0.00000493,-0.00000454,0.00000310,-0.00000075,0.0000
 0828,0.00000397,-0.00000319,-0.00000103,-0.00000499,0.00001279,-0.0000
 0572,0.00000904,-0.00001689,0.00000735,-0.00000911,-0.00001588,0.00000
 016,0.00000210,0.00001768,-0.00000269,-0.00000313,-0.00000579,-0.00000
 947,0.00001025,0.00000478,0.00000324,-0.00000671,0.00000380,-0.0000108
 0,-0.00001018,-0.00000235,-0.00000343,0.00001187,-0.00000440,0.0000102
 4,-0.00000155,0.00001288,0.00000034,0.00000574,-0.00000172,0.00000572,
 -0.00000518,0.00000524,0.00000095,-0.00000485,-0.00000680,-0.00000230,
 -0.00000425,-0.00001755,-0.00001283,0.00001892,-0.00000006,0.00000655,
 0.00000704,0.00000231,-0.00000649,0.00000114,0.00000313,0.00000114,0.0
 0000152,-0.00000495,-0.00001620,0.00000071,0.00001545,-0.00000017,-0.0
 0000596,0.00000714,0.00001287,-0.00000575,-0.00000149,-0.00000896,0.00
 001064,-0.00000254,0.00000628,0.00000323,-0.00000449,-0.00000345,-0.00
 000467,0.00000486,0.00000860,0.00000601,-0.00000285,0.00001645,0.00005
 329,-0.00000700,-0.00000094,0.00000060,0.00000911,-0.00000091,0.000005
 94,0.00000003,0.00000747,-0.00000821,0.00000662,0.00000785,-0.00000565
 ,0.00000202,-0.00000291,0.00000128,-0.00000261,-0.00000218,0.00000211,
 0.00000085,0.00000414,0.00000051,0.00000181,0.00000145,-0.00000190,0.0
 0000098,0.00000345,0.,0.00000146,0.00000453,-0.00000217,0.00000384,0.0
 0000268,-0.00000038,-0.00000256,-0.00000164,-0.00000385,-0.00000368,0.
 00000086,-0.00000604,0.00000145,-0.00000796,-0.00001017,-0.00000623,0.
 00000340,-0.00000101,0.00000167,0.00000080,0.00000080,0.00000399,-0.00
 000821,-0.00000259,-0.00000459,-0.00000184,0.00000025,0.00000012,-0.00
 000137,-0.00000611,-0.00000102,0.00000158,-0.00000280,0.00000130,0.000
 00151,-0.00000524,0.00000267,0.00000248,-0.00000099,0.00000156,-0.0000
 0618,0.00000391,-0.00000699,-0.00000110,-0.00000008,-0.00000376,-0.000
 00523,0.00000131,0.00000237,0.00000010,0.00000464,-0.00000033,-0.00000
 176,-0.00000564,0.00000135,0.00000078,0.00000107,0.00000148,-0.0000027
 2,0.00000091,0.00000033,-0.00000158,-0.00000125,0.00000159,0.00001686,
 -0.00000752,-0.00001273,-0.00000095,0.00000290,0.00000188,-0.00000203,
 0.00000300,0.00000071,0.00000428,0.00000356,0.00000252,0.00000267,0.00
 000140,0.00000023,0.00000023,0.00000343,0.00000054,-0.00000114,0.00000
 260,0.00000011,0.00000049,-0.00000111,0.00000254,0.00000219,0.00000202
 ,-0.00000032,0.00000213,-0.00000053,-0.00000074,-0.00000218,-0.0000009
 6,0.00000190,-0.00000587,-0.00001311,0.00000034,0.00000229,-0.00002302
 ,0.00000371,-0.00000369,-0.00000814,0.00000380,0.00000118,0.00000315,-
 0.00000412,-0.00000722,-0.00000056,-0.00000291,-0.00000546,0.00000519,
 -0.00000401\\\@


 IN NATURE THERE ARE NEITHER REWARDS OR
 PUNISHMENTS -- THERE ARE CONSEQUENCES.

                            -- ROBERT GREEN INGERSOLL
 Job cpu time:      18 days  7 hours 13 minutes 28.1 seconds.
 File lengths (MBytes):  RWF=  23784 Int=      0 D2E=      0 Chk=     97 Scr=      1
 Normal termination of Gaussian 09 at Sat May 21 04:17:25 2016.
