 Entering Gaussian System, Link 0=g09
 Initial command:
 /share/apps//g09/l1.exe "/scratch/Gau-7959.inp" -scrdir="/scratch/"
 Entering Link 1 = /share/apps//g09/l1.exe PID=      7960.
  
 Copyright (c) 1988,1990,1992,1993,1995,1998,2003,2009,2013,
            Gaussian, Inc.  All Rights Reserved.
  
 This is part of the Gaussian(R) 09 program.  It is based on
 the Gaussian(R) 03 system (copyright 2003, Gaussian, Inc.),
 the Gaussian(R) 98 system (copyright 1998, Gaussian, Inc.),
 the Gaussian(R) 94 system (copyright 1995, Gaussian, Inc.),
 the Gaussian 92(TM) system (copyright 1992, Gaussian, Inc.),
 the Gaussian 90(TM) system (copyright 1990, Gaussian, Inc.),
 the Gaussian 88(TM) system (copyright 1988, Gaussian, Inc.),
 the Gaussian 86(TM) system (copyright 1986, Carnegie Mellon
 University), and the Gaussian 82(TM) system (copyright 1983,
 Carnegie Mellon University). Gaussian is a federally registered
 trademark of Gaussian, Inc.
  
 This software contains proprietary and confidential information,
 including trade secrets, belonging to Gaussian, Inc.
  
 This software is provided under written license and may be
 used, copied, transmitted, or stored only in accord with that
 written license.
  
 The following legend is applicable only to US Government
 contracts under FAR:
  
                    RESTRICTED RIGHTS LEGEND
  
 Use, reproduction and disclosure by the US Government is
 subject to restrictions as set forth in subparagraphs (a)
 and (c) of the Commercial Computer Software - Restricted
 Rights clause in FAR 52.227-19.
  
 Gaussian, Inc.
 340 Quinnipiac St., Bldg. 40, Wallingford CT 06492
  
  
 ---------------------------------------------------------------
 Warning -- This program may not be used in any manner that
 competes with the business of Gaussian, Inc. or will provide
 assistance to any competitor of Gaussian, Inc.  The licensee
 of this program is prohibited from giving any competitor of
 Gaussian, Inc. access to this program.  By using this program,
 the user acknowledges that Gaussian, Inc. is engaged in the
 business of creating and licensing software in the field of
 computational chemistry and represents and warrants to the
 licensee that it is not a competitor of Gaussian, Inc. and that
 it will not use this program in any manner prohibited above.
 ---------------------------------------------------------------
  

 Cite this work as:
 Gaussian 09, Revision D.01,
 M. J. Frisch, G. W. Trucks, H. B. Schlegel, G. E. Scuseria, 
 M. A. Robb, J. R. Cheeseman, G. Scalmani, V. Barone, B. Mennucci, 
 G. A. Petersson, H. Nakatsuji, M. Caricato, X. Li, H. P. Hratchian, 
 A. F. Izmaylov, J. Bloino, G. Zheng, J. L. Sonnenberg, M. Hada, 
 M. Ehara, K. Toyota, R. Fukuda, J. Hasegawa, M. Ishida, T. Nakajima, 
 Y. Honda, O. Kitao, H. Nakai, T. Vreven, J. A. Montgomery, Jr., 
 J. E. Peralta, F. Ogliaro, M. Bearpark, J. J. Heyd, E. Brothers, 
 K. N. Kudin, V. N. Staroverov, T. Keith, R. Kobayashi, J. Normand, 
 K. Raghavachari, A. Rendell, J. C. Burant, S. S. Iyengar, J. Tomasi, 
 M. Cossi, N. Rega, J. M. Millam, M. Klene, J. E. Knox, J. B. Cross, 
 V. Bakken, C. Adamo, J. Jaramillo, R. Gomperts, R. E. Stratmann, 
 O. Yazyev, A. J. Austin, R. Cammi, C. Pomelli, J. W. Ochterski, 
 R. L. Martin, K. Morokuma, V. G. Zakrzewski, G. A. Voth, 
 P. Salvador, J. J. Dannenberg, S. Dapprich, A. D. Daniels, 
 O. Farkas, J. B. Foresman, J. V. Ortiz, J. Cioslowski, 
 and D. J. Fox, Gaussian, Inc., Wallingford CT, 2013.
 
 ******************************************
 Gaussian 09:  EM64L-G09RevD.01 24-Apr-2013
                 7-Apr-2016 
 ******************************************
 %nproc=20
 Will use up to   20 processors via shared memory.
 %mem=80GB
 %chk=Tri_A131_of.chk
 ----------------------------------------------------------------------
 #P PBE1PBE/6-311+G(d,p) opt=ModRedundant freq optcyc=999 EmpiricalDisp
 ersion=GD3 geom=check
 ----------------------------------------------------------------------
 1/6=999,14=-1,18=120,19=15,26=3,29=2,38=1/1,3;
 2/9=110,12=2,40=1/2;
 3/5=4,6=6,7=111,11=2,14=-4,16=1,25=1,30=1,71=1,74=-13,124=31/1,2,3;
 4//1;
 5/5=2,38=5/2;
 6/7=2,8=2,9=2,10=2,28=1/1;
 7//1,2,3,16;
 1/6=999,14=-1,18=20,19=15,26=3/3(2);
 2/9=110/2;
 99//99;
 2/9=110/2;
 3/5=4,6=6,7=111,11=2,14=-2,16=1,25=1,30=1,71=1,74=-13,124=31/1,2,3;
 4/5=5,16=3,69=1/1;
 5/5=2,38=5/2;
 7//1,2,3,16;
 1/6=999,14=-1,18=20,19=15,26=3/3(-5);
 2/9=110/2;
 6/7=2,8=2,9=2,10=2,19=2,28=1/1;
 99/9=1/99;
 Leave Link    1 at Thu Apr  7 13:29:47 2016, MaxMem= 10737418240 cpu:         3.1
 (Enter /share/apps//g09/l101.exe)
 -------
 disacch
 -------
 Structure from the checkpoint file:  "Tri_A131_of.chk"
 Charge =  1 Multiplicity = 1
 Redundant internal coordinates found in file.
 O,0,2.5948045304,-1.2491122187,0.9680917901
 C,0,3.7395282974,-0.4426545849,0.9653529792
 C,0,4.9365243251,-1.1994768175,0.4008975107
 C,0,4.6072998765,-1.7787985984,-0.970858431
 C,0,3.3395801221,-2.6212929215,-0.9146516257
 C,0,2.2357811676,-1.7728751638,-0.3038566939
 H,0,3.8976618432,-0.1588411216,2.0059424884
 H,0,5.1544982693,-2.021834172,1.0873759334
 H,0,4.4375794602,-0.9472894166,-1.6720944865
 H,0,3.0503501948,-2.8806749398,-1.9466432915
 H,0,2.0377384536,-0.9506317486,-1.0037310067
 O,0,3.5200249496,-3.7856248016,-0.1466234929
 O,0,5.6441277147,-2.6191369214,-1.4259328377
 O,0,6.0988055972,-0.4046719905,0.3395702713
 O,0,3.5611959591,0.6871855041,0.1414321128
 C,0,0.9814856958,-2.5667708349,-0.0626844567
 H,0,0.6666775141,-3.0482816128,-0.9926158997
 H,0,1.1681332172,-3.3469733652,0.6797050717
 O,0,-0.0949089281,-1.7208756697,0.3462258251
 H,0,0.1130207019,-1.3745795012,1.2256228983
 H,0,4.3704625418,-4.1589158865,-0.4059660187
 H,0,6.4815672716,-2.1875006338,-1.2259279523
 H,0,5.8493958865,0.4272040565,-0.0780343343
 O,0,0.185925633,3.1345406592,0.1017412
 C,0,0.4232833701,2.5106246489,1.3496170715
 C,0,1.4132586492,1.3303267061,1.2532386835
 C,0,2.687257018,1.7403146874,0.5109104509
 C,0,2.2908617647,2.3885141007,-0.8103473648
 C,0,1.3863524207,3.5775782705,-0.5056912367
 H,0,0.8277533518,3.2462568862,2.0583871832
 H,0,0.9574111114,0.5217510939,0.6800251998
 H,0,3.2263801933,2.4672280321,1.1376142154
 H,0,3.1963283475,2.7402790282,-1.3252641426
 H,0,1.9299888908,4.2524799186,0.1761563819
 O,0,1.6436175814,1.3849425393,-1.5639620136
 O,0,1.7397164005,0.918141109,2.5514252702
 O,0,-0.8096380993,2.1550844125,1.8930151127
 C,0,0.993866434,4.3900460633,-1.7175454027
 H,0,0.36714319,5.2295593464,-1.395240709
 H,0,1.8991999428,4.7866783807,-2.1935674954
 O,0,0.2760973728,3.5369526028,-2.6041404567
 H,0,-0.0899587142,4.0529828252,-3.3260336441
 H,0,1.3148946197,1.7841668585,-2.3774355502
 H,0,1.0426825313,0.3066789264,2.8297887288
 O,0,-3.634645374,0.5154647478,0.2795461019
 C,0,-4.0465737758,-0.3506959668,1.3269345982
 C,0,-2.8026924149,-0.9814240998,1.9253280875
 C,0,-1.748573073,0.0226138023,2.3306508396
 C,0,-1.510234707,1.0933976408,1.2811540877
 C,0,-2.8386873825,1.6166582114,0.7232549012
 H,0,-4.649762506,0.2222157735,2.0508327311
 H,0,-2.3823866922,-1.5981896017,1.1141262056
 H,0,-2.0484520574,0.5197812113,3.2633049236
 H,0,-3.3752532134,2.1713904773,1.5073374395
 H,0,-0.9331254603,0.6740506921,0.449597934
 O,0,-0.5285755745,-0.6870763618,2.5139927
 O,0,-3.0638375599,-1.7615960056,3.062745407
 O,0,-4.7328170092,-1.4124676039,0.7822720073
 C,0,-2.6633927317,2.5339753789,-0.4734073801
 H,0,-3.6540056735,2.7497009121,-0.8831705804
 H,0,-2.1993848502,3.4678489127,-0.153282681
 O,0,-1.8675454544,1.9248512226,-1.476523231
 H,0,-1.0253782824,2.4096166373,-1.4924024301
 H,0,-0.6932475262,-1.3777681176,3.1676322575
 H,0,-3.6207357103,-2.5031959471,2.8080045854
 C,0,-5.807584461,-1.1749610694,-0.1282516907
 H,0,-6.5480785609,-1.9494093207,0.0874645541
 H,0,-6.2678465027,-0.1980290598,0.0543327423
 C,0,-5.2893239732,-1.2848641095,-1.5654060961
 H,0,-4.7380999185,-0.3652100806,-1.7899558024
 H,0,-6.1436118537,-1.2970587346,-2.2505346402
 C,0,-4.4128008891,-2.5305483819,-1.7629487966
 H,0,-3.886965288,-2.736904154,-0.8245358515
 H,0,-5.049897354,-3.4043879067,-1.9309507377
 C,0,-3.3694952226,-2.4713097426,-2.8859307226
 H,0,-2.7421120625,-3.3666018386,-2.8169424043
 H,0,-3.8470881983,-2.5109968895,-3.8706607413
 C,0,-2.4899218725,-1.2246266014,-2.885824097
 H,0,-3.03667551,-0.3617073803,-3.2731669075
 H,0,-1.6091126707,-1.3588315622,-3.5168552957
 N,0,-2.0303469016,-0.8187549361,-1.5317716353
 H,0,-2.8219183977,-0.6661538994,-0.8946316268
 H,0,-1.6331683259,0.1470047125,-1.5816235543
 H,0,-1.3737476343,-1.4309367376,-1.0221996667
 Recover connectivity data from disk.
 The following ModRedundant input section has been read:
 B      19      84 B                                                           
 In this task builder options are not available,
 so the previous line wont be used.
 B      62      83 B                                                           
 In this task builder options are not available,
 so the previous line wont be used.
 B      45      82 B                                                           
 In this task builder options are not available,
 so the previous line wont be used.
 B      24      63 B                                                           
 In this task builder options are not available,
 so the previous line wont be used.
 B      11      35 B                                                           
 In this task builder options are not available,
 so the previous line wont be used.
 B      20      56 B                                                           
 In this task builder options are not available,
 so the previous line wont be used.
 B      44      56 B                                                           
 In this task builder options are not available,
 so the previous line wont be used.
 
 NAtoms=     84 NQM=       84 NQMF=       0 NMMI=      0 NMMIF=      0
                NMic=       0 NMicF=      0.
                    Isotopes and Nuclear Properties:
 (Nuclear quadrupole moments (NQMom) in fm**2, nuclear magnetic moments (NMagM)
  in nuclear magnetons)

  Atom         1           2           3           4           5           6           7           8           9          10
 IAtWgt=          16          12          12          12          12          12           1           1           1           1
 AtmWgt=  15.9949146  12.0000000  12.0000000  12.0000000  12.0000000  12.0000000   1.0078250   1.0078250   1.0078250   1.0078250
 NucSpn=           0           0           0           0           0           0           1           1           1           1
 AtZEff=  -5.6000000  -3.6000000  -3.6000000  -3.6000000  -3.6000000  -3.6000000  -1.0000000  -1.0000000  -1.0000000  -1.0000000
 NQMom=    0.0000000   0.0000000   0.0000000   0.0000000   0.0000000   0.0000000   0.0000000   0.0000000   0.0000000   0.0000000
 NMagM=    0.0000000   0.0000000   0.0000000   0.0000000   0.0000000   0.0000000   2.7928460   2.7928460   2.7928460   2.7928460
 AtZNuc=   8.0000000   6.0000000   6.0000000   6.0000000   6.0000000   6.0000000   1.0000000   1.0000000   1.0000000   1.0000000

  Atom        11          12          13          14          15          16          17          18          19          20
 IAtWgt=           1          16          16          16          16          12           1           1          16           1
 AtmWgt=   1.0078250  15.9949146  15.9949146  15.9949146  15.9949146  12.0000000   1.0078250   1.0078250  15.9949146   1.0078250
 NucSpn=           1           0           0           0           0           0           1           1           0           1
 AtZEff=  -1.0000000  -5.6000000  -5.6000000  -5.6000000  -5.6000000  -3.6000000  -1.0000000  -1.0000000  -5.6000000  -1.0000000
 NQMom=    0.0000000   0.0000000   0.0000000   0.0000000   0.0000000   0.0000000   0.0000000   0.0000000   0.0000000   0.0000000
 NMagM=    2.7928460   0.0000000   0.0000000   0.0000000   0.0000000   0.0000000   2.7928460   2.7928460   0.0000000   2.7928460
 AtZNuc=   1.0000000   8.0000000   8.0000000   8.0000000   8.0000000   6.0000000   1.0000000   1.0000000   8.0000000   1.0000000

  Atom        21          22          23          24          25          26          27          28          29          30
 IAtWgt=           1           1           1          16          12          12          12          12          12           1
 AtmWgt=   1.0078250   1.0078250   1.0078250  15.9949146  12.0000000  12.0000000  12.0000000  12.0000000  12.0000000   1.0078250
 NucSpn=           1           1           1           0           0           0           0           0           0           1
 AtZEff=  -1.0000000  -1.0000000  -1.0000000  -5.6000000  -3.6000000  -3.6000000  -3.6000000  -3.6000000  -3.6000000  -1.0000000
 NQMom=    0.0000000   0.0000000   0.0000000   0.0000000   0.0000000   0.0000000   0.0000000   0.0000000   0.0000000   0.0000000
 NMagM=    2.7928460   2.7928460   2.7928460   0.0000000   0.0000000   0.0000000   0.0000000   0.0000000   0.0000000   2.7928460
 AtZNuc=   1.0000000   1.0000000   1.0000000   8.0000000   6.0000000   6.0000000   6.0000000   6.0000000   6.0000000   1.0000000

  Atom        31          32          33          34          35          36          37          38          39          40
 IAtWgt=           1           1           1           1          16          16          16          12           1           1
 AtmWgt=   1.0078250   1.0078250   1.0078250   1.0078250  15.9949146  15.9949146  15.9949146  12.0000000   1.0078250   1.0078250
 NucSpn=           1           1           1           1           0           0           0           0           1           1
 AtZEff=  -1.0000000  -1.0000000  -1.0000000  -1.0000000  -5.6000000  -5.6000000  -5.6000000  -3.6000000  -1.0000000  -1.0000000
 NQMom=    0.0000000   0.0000000   0.0000000   0.0000000   0.0000000   0.0000000   0.0000000   0.0000000   0.0000000   0.0000000
 NMagM=    2.7928460   2.7928460   2.7928460   2.7928460   0.0000000   0.0000000   0.0000000   0.0000000   2.7928460   2.7928460
 AtZNuc=   1.0000000   1.0000000   1.0000000   1.0000000   8.0000000   8.0000000   8.0000000   6.0000000   1.0000000   1.0000000

  Atom        41          42          43          44          45          46          47          48          49          50
 IAtWgt=          16           1           1           1          16          12          12          12          12          12
 AtmWgt=  15.9949146   1.0078250   1.0078250   1.0078250  15.9949146  12.0000000  12.0000000  12.0000000  12.0000000  12.0000000
 NucSpn=           0           1           1           1           0           0           0           0           0           0
 AtZEff=  -5.6000000  -1.0000000  -1.0000000  -1.0000000  -5.6000000  -3.6000000  -3.6000000  -3.6000000  -3.6000000  -3.6000000
 NQMom=    0.0000000   0.0000000   0.0000000   0.0000000   0.0000000   0.0000000   0.0000000   0.0000000   0.0000000   0.0000000
 NMagM=    0.0000000   2.7928460   2.7928460   2.7928460   0.0000000   0.0000000   0.0000000   0.0000000   0.0000000   0.0000000
 AtZNuc=   8.0000000   1.0000000   1.0000000   1.0000000   8.0000000   6.0000000   6.0000000   6.0000000   6.0000000   6.0000000

  Atom        51          52          53          54          55          56          57          58          59          60
 IAtWgt=           1           1           1           1           1          16          16          16          12           1
 AtmWgt=   1.0078250   1.0078250   1.0078250   1.0078250   1.0078250  15.9949146  15.9949146  15.9949146  12.0000000   1.0078250
 NucSpn=           1           1           1           1           1           0           0           0           0           1
 AtZEff=  -1.0000000  -1.0000000  -1.0000000  -1.0000000  -1.0000000  -5.6000000  -5.6000000  -5.6000000  -3.6000000  -1.0000000
 NQMom=    0.0000000   0.0000000   0.0000000   0.0000000   0.0000000   0.0000000   0.0000000   0.0000000   0.0000000   0.0000000
 NMagM=    2.7928460   2.7928460   2.7928460   2.7928460   2.7928460   0.0000000   0.0000000   0.0000000   0.0000000   2.7928460
 AtZNuc=   1.0000000   1.0000000   1.0000000   1.0000000   1.0000000   8.0000000   8.0000000   8.0000000   6.0000000   1.0000000

  Atom        61          62          63          64          65          66          67          68          69          70
 IAtWgt=           1          16           1           1           1          12           1           1          12           1
 AtmWgt=   1.0078250  15.9949146   1.0078250   1.0078250   1.0078250  12.0000000   1.0078250   1.0078250  12.0000000   1.0078250
 NucSpn=           1           0           1           1           1           0           1           1           0           1
 AtZEff=  -1.0000000  -5.6000000  -1.0000000  -1.0000000  -1.0000000  -3.6000000  -1.0000000  -1.0000000  -3.6000000  -1.0000000
 NQMom=    0.0000000   0.0000000   0.0000000   0.0000000   0.0000000   0.0000000   0.0000000   0.0000000   0.0000000   0.0000000
 NMagM=    2.7928460   0.0000000   2.7928460   2.7928460   2.7928460   0.0000000   2.7928460   2.7928460   0.0000000   2.7928460
 AtZNuc=   1.0000000   8.0000000   1.0000000   1.0000000   1.0000000   6.0000000   1.0000000   1.0000000   6.0000000   1.0000000

  Atom        71          72          73          74          75          76          77          78          79          80
 IAtWgt=           1          12           1           1          12           1           1          12           1           1
 AtmWgt=   1.0078250  12.0000000   1.0078250   1.0078250  12.0000000   1.0078250   1.0078250  12.0000000   1.0078250   1.0078250
 NucSpn=           1           0           1           1           0           1           1           0           1           1
 AtZEff=  -1.0000000  -3.6000000  -1.0000000  -1.0000000  -3.6000000  -1.0000000  -1.0000000  -3.6000000  -1.0000000  -1.0000000
 NQMom=    0.0000000   0.0000000   0.0000000   0.0000000   0.0000000   0.0000000   0.0000000   0.0000000   0.0000000   0.0000000
 NMagM=    2.7928460   0.0000000   2.7928460   2.7928460   0.0000000   2.7928460   2.7928460   0.0000000   2.7928460   2.7928460
 AtZNuc=   1.0000000   6.0000000   1.0000000   1.0000000   6.0000000   1.0000000   1.0000000   6.0000000   1.0000000   1.0000000

  Atom        81          82          83          84
 IAtWgt=          14           1           1           1
 AtmWgt=  14.0030740   1.0078250   1.0078250   1.0078250
 NucSpn=           2           1           1           1
 AtZEff=  -4.5500000  -1.0000000  -1.0000000  -1.0000000
 NQMom=    2.0440000   0.0000000   0.0000000   0.0000000
 NMagM=    0.4037610   2.7928460   2.7928460   2.7928460
 AtZNuc=   7.0000000   1.0000000   1.0000000   1.0000000
 Leave Link  101 at Thu Apr  7 13:29:48 2016, MaxMem= 10737418240 cpu:         5.5
 (Enter /share/apps//g09/l103.exe)

 GradGradGradGradGradGradGradGradGradGradGradGradGradGradGradGradGradGrad
 Berny optimization.
 Initialization pass.
                           ----------------------------
                           !    Initial Parameters    !
                           ! (Angstroms and Degrees)  !
 --------------------------                            --------------------------
 ! Name  Definition              Value          Derivative Info.                !
 --------------------------------------------------------------------------------
 ! R1    R(1,2)                  1.4003         estimate D2E/DX2                !
 ! R2    R(1,6)                  1.4216         estimate D2E/DX2                !
 ! R3    R(2,3)                  1.5245         estimate D2E/DX2                !
 ! R4    R(2,7)                  1.0901         estimate D2E/DX2                !
 ! R5    R(2,15)                 1.4097         estimate D2E/DX2                !
 ! R6    R(3,4)                  1.525          estimate D2E/DX2                !
 ! R7    R(3,8)                  1.0932         estimate D2E/DX2                !
 ! R8    R(3,14)                 1.4094         estimate D2E/DX2                !
 ! R9    R(4,5)                  1.5232         estimate D2E/DX2                !
 ! R10   R(4,9)                  1.1009         estimate D2E/DX2                !
 ! R11   R(4,13)                 1.4101         estimate D2E/DX2                !
 ! R12   R(5,6)                  1.5203         estimate D2E/DX2                !
 ! R13   R(5,10)                 1.1027         estimate D2E/DX2                !
 ! R14   R(5,12)                 1.4064         estimate D2E/DX2                !
 ! R15   R(6,11)                 1.0978         estimate D2E/DX2                !
 ! R16   R(6,16)                 1.5039         estimate D2E/DX2                !
 ! R17   R(11,35)                2.4339         estimate D2E/DX2                !
 ! R18   R(12,21)                0.9643         estimate D2E/DX2                !
 ! R19   R(13,22)                0.9631         estimate D2E/DX2                !
 ! R20   R(14,23)                0.9636         estimate D2E/DX2                !
 ! R21   R(15,27)                1.4175         estimate D2E/DX2                !
 ! R22   R(16,17)                1.0935         estimate D2E/DX2                !
 ! R23   R(16,18)                1.093          estimate D2E/DX2                !
 ! R24   R(16,19)                1.4288         estimate D2E/DX2                !
 ! R25   R(19,20)                0.9677         estimate D2E/DX2                !
 ! R26   R(19,84)                1.8953         estimate D2E/DX2                !
 ! R27   R(24,25)                1.4152         estimate D2E/DX2                !
 ! R28   R(24,29)                1.4164         estimate D2E/DX2                !
 ! R29   R(24,63)                2.1293         estimate D2E/DX2                !
 ! R30   R(25,26)                1.5435         estimate D2E/DX2                !
 ! R31   R(25,30)                1.0987         estimate D2E/DX2                !
 ! R32   R(25,37)                1.3935         estimate D2E/DX2                !
 ! R33   R(26,27)                1.5304         estimate D2E/DX2                !
 ! R34   R(26,31)                1.0909         estimate D2E/DX2                !
 ! R35   R(26,36)                1.4006         estimate D2E/DX2                !
 ! R36   R(27,28)                1.5241         estimate D2E/DX2                !
 ! R37   R(27,32)                1.1008         estimate D2E/DX2                !
 ! R38   R(28,29)                1.5247         estimate D2E/DX2                !
 ! R39   R(28,33)                1.0994         estimate D2E/DX2                !
 ! R40   R(28,35)                1.4121         estimate D2E/DX2                !
 ! R41   R(29,34)                1.1027         estimate D2E/DX2                !
 ! R42   R(29,38)                1.5109         estimate D2E/DX2                !
 ! R43   R(35,43)                0.9639         estimate D2E/DX2                !
 ! R44   R(36,44)                0.9681         estimate D2E/DX2                !
 ! R45   R(37,49)                1.4115         estimate D2E/DX2                !
 ! R46   R(38,39)                1.0961         estimate D2E/DX2                !
 ! R47   R(38,40)                1.0971         estimate D2E/DX2                !
 ! R48   R(38,41)                1.4244         estimate D2E/DX2                !
 ! R49   R(41,42)                0.9599         estimate D2E/DX2                !
 ! R50   R(45,46)                1.4202         estimate D2E/DX2                !
 ! R51   R(45,50)                1.4294         estimate D2E/DX2                !
 ! R52   R(45,82)                1.8535         estimate D2E/DX2                !
 ! R53   R(46,47)                1.5176         estimate D2E/DX2                !
 ! R54   R(46,51)                1.1028         estimate D2E/DX2                !
 ! R55   R(46,58)                1.3766         estimate D2E/DX2                !
 ! R56   R(47,48)                1.5111         estimate D2E/DX2                !
 ! R57   R(47,52)                1.1023         estimate D2E/DX2                !
 ! R58   R(47,57)                1.4038         estimate D2E/DX2                !
 ! R59   R(48,49)                1.5182         estimate D2E/DX2                !
 ! R60   R(48,53)                1.0986         estimate D2E/DX2                !
 ! R61   R(48,56)                1.4233         estimate D2E/DX2                !
 ! R62   R(49,50)                1.5329         estimate D2E/DX2                !
 ! R63   R(49,55)                1.0956         estimate D2E/DX2                !
 ! R64   R(50,54)                1.1002         estimate D2E/DX2                !
 ! R65   R(50,59)                1.518          estimate D2E/DX2                !
 ! R66   R(56,64)                0.9651         estimate D2E/DX2                !
 ! R67   R(57,65)                0.9618         estimate D2E/DX2                !
 ! R68   R(58,66)                1.4285         estimate D2E/DX2                !
 ! R69   R(59,60)                1.0935         estimate D2E/DX2                !
 ! R70   R(59,61)                1.0908         estimate D2E/DX2                !
 ! R71   R(59,62)                1.418          estimate D2E/DX2                !
 ! R72   R(62,63)                0.9719         estimate D2E/DX2                !
 ! R73   R(62,83)                1.7963         estimate D2E/DX2                !
 ! R74   R(66,67)                1.093          estimate D2E/DX2                !
 ! R75   R(66,68)                1.0953         estimate D2E/DX2                !
 ! R76   R(66,69)                1.5317         estimate D2E/DX2                !
 ! R77   R(69,70)                1.0955         estimate D2E/DX2                !
 ! R78   R(69,71)                1.0952         estimate D2E/DX2                !
 ! R79   R(69,72)                1.5359         estimate D2E/DX2                !
 ! R80   R(72,73)                1.0953         estimate D2E/DX2                !
 ! R81   R(72,74)                1.0944         estimate D2E/DX2                !
 ! R82   R(72,75)                1.534          estimate D2E/DX2                !
 ! R83   R(75,76)                1.0954         estimate D2E/DX2                !
 ! R84   R(75,77)                1.0952         estimate D2E/DX2                !
 ! R85   R(75,78)                1.5257         estimate D2E/DX2                !
 ! R86   R(78,79)                1.0925         estimate D2E/DX2                !
 ! R87   R(78,80)                1.0918         estimate D2E/DX2                !
 ! R88   R(78,81)                1.4864         estimate D2E/DX2                !
 ! R89   R(81,82)                1.0275         estimate D2E/DX2                !
 ! R90   R(81,83)                1.0454         estimate D2E/DX2                !
 ! R91   R(81,84)                1.0323         estimate D2E/DX2                !
 ! A1    A(2,1,6)              114.6381         estimate D2E/DX2                !
 ! A2    A(1,2,3)              110.8965         estimate D2E/DX2                !
 ! A3    A(1,2,7)              105.4656         estimate D2E/DX2                !
 ! A4    A(1,2,15)             111.0587         estimate D2E/DX2                !
 ! A5    A(3,2,7)              111.64           estimate D2E/DX2                !
 ! A6    A(3,2,15)             106.3085         estimate D2E/DX2                !
 ! A7    A(7,2,15)             111.5676         estimate D2E/DX2                !
 ! A8    A(2,3,4)              110.6169         estimate D2E/DX2                !
 ! A9    A(2,3,8)              107.3074         estimate D2E/DX2                !
 ! A10   A(2,3,14)             112.5601         estimate D2E/DX2                !
 ! A11   A(4,3,8)              108.7918         estimate D2E/DX2                !
 ! A12   A(4,3,14)             110.678          estimate D2E/DX2                !
 ! A13   A(8,3,14)             106.6855         estimate D2E/DX2                !
 ! A14   A(3,4,5)              110.8914         estimate D2E/DX2                !
 ! A15   A(3,4,9)              108.6214         estimate D2E/DX2                !
 ! A16   A(3,4,13)             110.9743         estimate D2E/DX2                !
 ! A17   A(5,4,9)              108.2382         estimate D2E/DX2                !
 ! A18   A(5,4,13)             107.1132         estimate D2E/DX2                !
 ! A19   A(9,4,13)             110.9726         estimate D2E/DX2                !
 ! A20   A(4,5,6)              108.0852         estimate D2E/DX2                !
 ! A21   A(4,5,10)             108.2929         estimate D2E/DX2                !
 ! A22   A(4,5,12)             111.7939         estimate D2E/DX2                !
 ! A23   A(6,5,10)             108.4717         estimate D2E/DX2                !
 ! A24   A(6,5,12)             109.6184         estimate D2E/DX2                !
 ! A25   A(10,5,12)            110.4862         estimate D2E/DX2                !
 ! A26   A(1,6,5)              112.4393         estimate D2E/DX2                !
 ! A27   A(1,6,11)             109.8777         estimate D2E/DX2                !
 ! A28   A(1,6,16)             105.1671         estimate D2E/DX2                !
 ! A29   A(5,6,11)             107.0278         estimate D2E/DX2                !
 ! A30   A(5,6,16)             112.0477         estimate D2E/DX2                !
 ! A31   A(11,6,16)            110.3144         estimate D2E/DX2                !
 ! A32   A(6,11,35)            153.4682         estimate D2E/DX2                !
 ! A33   A(5,12,21)            106.6641         estimate D2E/DX2                !
 ! A34   A(4,13,22)            107.7728         estimate D2E/DX2                !
 ! A35   A(3,14,23)            106.9921         estimate D2E/DX2                !
 ! A36   A(2,15,27)            121.4065         estimate D2E/DX2                !
 ! A37   A(6,16,17)            109.6447         estimate D2E/DX2                !
 ! A38   A(6,16,18)            110.0788         estimate D2E/DX2                !
 ! A39   A(6,16,19)            111.2045         estimate D2E/DX2                !
 ! A40   A(17,16,18)           108.2074         estimate D2E/DX2                !
 ! A41   A(17,16,19)           106.6905         estimate D2E/DX2                !
 ! A42   A(18,16,19)           110.9078         estimate D2E/DX2                !
 ! A43   A(16,19,20)           108.063          estimate D2E/DX2                !
 ! A44   A(16,19,84)           113.0958         estimate D2E/DX2                !
 ! A45   A(20,19,84)           138.2754         estimate D2E/DX2                !
 ! A46   A(25,24,29)           111.956          estimate D2E/DX2                !
 ! A47   A(25,24,63)           127.2618         estimate D2E/DX2                !
 ! A48   A(29,24,63)           105.5179         estimate D2E/DX2                !
 ! A49   A(24,25,26)           112.9318         estimate D2E/DX2                !
 ! A50   A(24,25,30)           109.5964         estimate D2E/DX2                !
 ! A51   A(24,25,37)           107.9352         estimate D2E/DX2                !
 ! A52   A(26,25,30)           108.431          estimate D2E/DX2                !
 ! A53   A(26,25,37)           113.3733         estimate D2E/DX2                !
 ! A54   A(30,25,37)           104.1814         estimate D2E/DX2                !
 ! A55   A(25,26,27)           111.0601         estimate D2E/DX2                !
 ! A56   A(25,26,31)           109.3641         estimate D2E/DX2                !
 ! A57   A(25,26,36)           108.4606         estimate D2E/DX2                !
 ! A58   A(27,26,31)           106.9496         estimate D2E/DX2                !
 ! A59   A(27,26,36)           109.5349         estimate D2E/DX2                !
 ! A60   A(31,26,36)           111.486          estimate D2E/DX2                !
 ! A61   A(15,27,26)           116.1438         estimate D2E/DX2                !
 ! A62   A(15,27,28)           104.4983         estimate D2E/DX2                !
 ! A63   A(15,27,32)           109.6965         estimate D2E/DX2                !
 ! A64   A(26,27,28)           108.5366         estimate D2E/DX2                !
 ! A65   A(26,27,32)           107.9656         estimate D2E/DX2                !
 ! A66   A(28,27,32)           109.8806         estimate D2E/DX2                !
 ! A67   A(27,28,29)           108.224          estimate D2E/DX2                !
 ! A68   A(27,28,33)           109.1403         estimate D2E/DX2                !
 ! A69   A(27,28,35)           106.2364         estimate D2E/DX2                !
 ! A70   A(29,28,33)           109.4286         estimate D2E/DX2                !
 ! A71   A(29,28,35)           112.8899         estimate D2E/DX2                !
 ! A72   A(33,28,35)           110.7892         estimate D2E/DX2                !
 ! A73   A(24,29,28)           110.1525         estimate D2E/DX2                !
 ! A74   A(24,29,34)           110.1259         estimate D2E/DX2                !
 ! A75   A(24,29,38)           106.9785         estimate D2E/DX2                !
 ! A76   A(28,29,34)           107.9623         estimate D2E/DX2                !
 ! A77   A(28,29,38)           114.4061         estimate D2E/DX2                !
 ! A78   A(34,29,38)           107.1522         estimate D2E/DX2                !
 ! A79   A(11,35,28)           119.0067         estimate D2E/DX2                !
 ! A80   A(11,35,43)           130.3072         estimate D2E/DX2                !
 ! A81   A(28,35,43)           108.2008         estimate D2E/DX2                !
 ! A82   A(26,36,44)           106.5326         estimate D2E/DX2                !
 ! A83   A(25,37,49)           117.5179         estimate D2E/DX2                !
 ! A84   A(29,38,39)           108.938          estimate D2E/DX2                !
 ! A85   A(29,38,40)           109.1519         estimate D2E/DX2                !
 ! A86   A(29,38,41)           107.9434         estimate D2E/DX2                !
 ! A87   A(39,38,40)           108.816          estimate D2E/DX2                !
 ! A88   A(39,38,41)           110.708          estimate D2E/DX2                !
 ! A89   A(40,38,41)           111.2408         estimate D2E/DX2                !
 ! A90   A(38,41,42)           109.7727         estimate D2E/DX2                !
 ! A91   A(46,45,50)           113.7313         estimate D2E/DX2                !
 ! A92   A(46,45,82)           101.8631         estimate D2E/DX2                !
 ! A93   A(50,45,82)           116.3352         estimate D2E/DX2                !
 ! A94   A(45,46,47)           107.8505         estimate D2E/DX2                !
 ! A95   A(45,46,51)           109.0215         estimate D2E/DX2                !
 ! A96   A(45,46,58)           108.8572         estimate D2E/DX2                !
 ! A97   A(47,46,51)           113.9165         estimate D2E/DX2                !
 ! A98   A(47,46,58)           104.1256         estimate D2E/DX2                !
 ! A99   A(51,46,58)           112.8158         estimate D2E/DX2                !
 ! A100  A(46,47,48)           113.6638         estimate D2E/DX2                !
 ! A101  A(46,47,52)           104.7671         estimate D2E/DX2                !
 ! A102  A(46,47,57)           113.4525         estimate D2E/DX2                !
 ! A103  A(48,47,52)           107.6479         estimate D2E/DX2                !
 ! A104  A(48,47,57)           106.3619         estimate D2E/DX2                !
 ! A105  A(52,47,57)           110.8697         estimate D2E/DX2                !
 ! A106  A(47,48,49)           113.1238         estimate D2E/DX2                !
 ! A107  A(47,48,53)           109.7536         estimate D2E/DX2                !
 ! A108  A(47,48,56)           107.529          estimate D2E/DX2                !
 ! A109  A(49,48,53)           108.0914         estimate D2E/DX2                !
 ! A110  A(49,48,56)           107.829          estimate D2E/DX2                !
 ! A111  A(53,48,56)           110.5041         estimate D2E/DX2                !
 ! A112  A(37,49,48)           107.9851         estimate D2E/DX2                !
 ! A113  A(37,49,50)           109.3387         estimate D2E/DX2                !
 ! A114  A(37,49,55)           110.8206         estimate D2E/DX2                !
 ! A115  A(48,49,50)           110.8732         estimate D2E/DX2                !
 ! A116  A(48,49,55)           109.7194         estimate D2E/DX2                !
 ! A117  A(50,49,55)           108.1138         estimate D2E/DX2                !
 ! A118  A(45,50,49)           109.4259         estimate D2E/DX2                !
 ! A119  A(45,50,54)           109.7614         estimate D2E/DX2                !
 ! A120  A(45,50,59)           106.5681         estimate D2E/DX2                !
 ! A121  A(49,50,54)           109.5962         estimate D2E/DX2                !
 ! A122  A(49,50,59)           113.1485         estimate D2E/DX2                !
 ! A123  A(54,50,59)           108.2672         estimate D2E/DX2                !
 ! A124  A(48,56,64)           107.3283         estimate D2E/DX2                !
 ! A125  A(47,57,65)           108.7627         estimate D2E/DX2                !
 ! A126  A(46,58,66)           119.9359         estimate D2E/DX2                !
 ! A127  A(50,59,60)           108.0599         estimate D2E/DX2                !
 ! A128  A(50,59,61)           109.5803         estimate D2E/DX2                !
 ! A129  A(50,59,62)           111.2791         estimate D2E/DX2                !
 ! A130  A(60,59,61)           109.0519         estimate D2E/DX2                !
 ! A131  A(60,59,62)           109.1535         estimate D2E/DX2                !
 ! A132  A(61,59,62)           109.6717         estimate D2E/DX2                !
 ! A133  A(59,62,63)           106.478          estimate D2E/DX2                !
 ! A134  A(59,62,83)           122.6688         estimate D2E/DX2                !
 ! A135  A(63,62,83)           112.3125         estimate D2E/DX2                !
 ! A136  A(24,63,62)           130.5823         estimate D2E/DX2                !
 ! A137  A(58,66,67)           105.4337         estimate D2E/DX2                !
 ! A138  A(58,66,68)           110.9909         estimate D2E/DX2                !
 ! A139  A(58,66,69)           109.3633         estimate D2E/DX2                !
 ! A140  A(67,66,68)           108.3249         estimate D2E/DX2                !
 ! A141  A(67,66,69)           111.3199         estimate D2E/DX2                !
 ! A142  A(68,66,69)           111.2604         estimate D2E/DX2                !
 ! A143  A(66,69,70)           107.5989         estimate D2E/DX2                !
 ! A144  A(66,69,71)           108.8957         estimate D2E/DX2                !
 ! A145  A(66,69,72)           111.8369         estimate D2E/DX2                !
 ! A146  A(70,69,71)           105.8804         estimate D2E/DX2                !
 ! A147  A(70,69,72)           111.5523         estimate D2E/DX2                !
 ! A148  A(71,69,72)           110.8349         estimate D2E/DX2                !
 ! A149  A(69,72,73)           108.4562         estimate D2E/DX2                !
 ! A150  A(69,72,74)           109.5791         estimate D2E/DX2                !
 ! A151  A(69,72,75)           116.8063         estimate D2E/DX2                !
 ! A152  A(73,72,74)           105.1036         estimate D2E/DX2                !
 ! A153  A(73,72,75)           107.9367         estimate D2E/DX2                !
 ! A154  A(74,72,75)           108.3238         estimate D2E/DX2                !
 ! A155  A(72,75,76)           108.1719         estimate D2E/DX2                !
 ! A156  A(72,75,77)           111.1159         estimate D2E/DX2                !
 ! A157  A(72,75,78)           115.0617         estimate D2E/DX2                !
 ! A158  A(76,75,77)           106.0682         estimate D2E/DX2                !
 ! A159  A(76,75,78)           109.7335         estimate D2E/DX2                !
 ! A160  A(77,75,78)           106.3246         estimate D2E/DX2                !
 ! A161  A(75,78,79)           110.907          estimate D2E/DX2                !
 ! A162  A(75,78,80)           111.3832         estimate D2E/DX2                !
 ! A163  A(75,78,81)           113.6671         estimate D2E/DX2                !
 ! A164  A(79,78,80)           107.2122         estimate D2E/DX2                !
 ! A165  A(79,78,81)           105.1907         estimate D2E/DX2                !
 ! A166  A(80,78,81)           108.0976         estimate D2E/DX2                !
 ! A167  A(78,81,82)           111.5445         estimate D2E/DX2                !
 ! A168  A(78,81,83)           109.0427         estimate D2E/DX2                !
 ! A169  A(78,81,84)           118.9748         estimate D2E/DX2                !
 ! A170  A(82,81,83)           100.664          estimate D2E/DX2                !
 ! A171  A(82,81,84)           105.7829         estimate D2E/DX2                !
 ! A172  A(83,81,84)           109.2528         estimate D2E/DX2                !
 ! A173  A(45,82,81)           145.6168         estimate D2E/DX2                !
 ! A174  A(62,83,81)           149.5347         estimate D2E/DX2                !
 ! A175  A(19,84,81)           151.2045         estimate D2E/DX2                !
 ! D1    D(6,1,2,3)            -56.8329         estimate D2E/DX2                !
 ! D2    D(6,1,2,7)           -177.8438         estimate D2E/DX2                !
 ! D3    D(6,1,2,15)            61.1428         estimate D2E/DX2                !
 ! D4    D(2,1,6,5)             59.0518         estimate D2E/DX2                !
 ! D5    D(2,1,6,11)           -60.0399         estimate D2E/DX2                !
 ! D6    D(2,1,6,16)          -178.7579         estimate D2E/DX2                !
 ! D7    D(1,2,3,4)             53.5824         estimate D2E/DX2                !
 ! D8    D(1,2,3,8)            -64.9546         estimate D2E/DX2                !
 ! D9    D(1,2,3,14)           177.9734         estimate D2E/DX2                !
 ! D10   D(7,2,3,4)            170.876          estimate D2E/DX2                !
 ! D11   D(7,2,3,8)             52.3389         estimate D2E/DX2                !
 ! D12   D(7,2,3,14)           -64.7331         estimate D2E/DX2                !
 ! D13   D(15,2,3,4)           -67.2449         estimate D2E/DX2                !
 ! D14   D(15,2,3,8)           174.218          estimate D2E/DX2                !
 ! D15   D(15,2,3,14)           57.146          estimate D2E/DX2                !
 ! D16   D(1,2,15,27)           70.6515         estimate D2E/DX2                !
 ! D17   D(3,2,15,27)         -168.6255         estimate D2E/DX2                !
 ! D18   D(7,2,15,27)          -46.7004         estimate D2E/DX2                !
 ! D19   D(2,3,4,5)            -53.6635         estimate D2E/DX2                !
 ! D20   D(2,3,4,9)             65.1598         estimate D2E/DX2                !
 ! D21   D(2,3,4,13)          -172.5868         estimate D2E/DX2                !
 ! D22   D(8,3,4,5)             63.9669         estimate D2E/DX2                !
 ! D23   D(8,3,4,9)           -177.2098         estimate D2E/DX2                !
 ! D24   D(8,3,4,13)           -54.9564         estimate D2E/DX2                !
 ! D25   D(14,3,4,5)          -179.1227         estimate D2E/DX2                !
 ! D26   D(14,3,4,9)           -60.2995         estimate D2E/DX2                !
 ! D27   D(14,3,4,13)           61.954          estimate D2E/DX2                !
 ! D28   D(2,3,14,23)          -48.6534         estimate D2E/DX2                !
 ! D29   D(4,3,14,23)           75.7038         estimate D2E/DX2                !
 ! D30   D(8,3,14,23)         -166.0945         estimate D2E/DX2                !
 ! D31   D(3,4,5,6)             53.5741         estimate D2E/DX2                !
 ! D32   D(3,4,5,10)           170.8967         estimate D2E/DX2                !
 ! D33   D(3,4,5,12)           -67.1542         estimate D2E/DX2                !
 ! D34   D(9,4,5,6)            -65.4801         estimate D2E/DX2                !
 ! D35   D(9,4,5,10)            51.8425         estimate D2E/DX2                !
 ! D36   D(9,4,5,12)           173.7916         estimate D2E/DX2                !
 ! D37   D(13,4,5,6)           174.7995         estimate D2E/DX2                !
 ! D38   D(13,4,5,10)          -67.878          estimate D2E/DX2                !
 ! D39   D(13,4,5,12)           54.0712         estimate D2E/DX2                !
 ! D40   D(3,4,13,22)          -42.6491         estimate D2E/DX2                !
 ! D41   D(5,4,13,22)         -163.8221         estimate D2E/DX2                !
 ! D42   D(9,4,13,22)           78.2267         estimate D2E/DX2                !
 ! D43   D(4,5,6,1)            -55.3585         estimate D2E/DX2                !
 ! D44   D(4,5,6,11)            65.386          estimate D2E/DX2                !
 ! D45   D(4,5,6,16)          -173.5652         estimate D2E/DX2                !
 ! D46   D(10,5,6,1)          -172.5658         estimate D2E/DX2                !
 ! D47   D(10,5,6,11)          -51.8213         estimate D2E/DX2                !
 ! D48   D(10,5,6,16)           69.2276         estimate D2E/DX2                !
 ! D49   D(12,5,6,1)            66.717          estimate D2E/DX2                !
 ! D50   D(12,5,6,11)         -172.5386         estimate D2E/DX2                !
 ! D51   D(12,5,6,16)          -51.4897         estimate D2E/DX2                !
 ! D52   D(4,5,12,21)          -44.3312         estimate D2E/DX2                !
 ! D53   D(6,5,12,21)         -164.1629         estimate D2E/DX2                !
 ! D54   D(10,5,12,21)          76.3489         estimate D2E/DX2                !
 ! D55   D(1,6,11,35)          -11.9976         estimate D2E/DX2                !
 ! D56   D(5,6,11,35)         -134.3569         estimate D2E/DX2                !
 ! D57   D(16,6,11,35)         103.5022         estimate D2E/DX2                !
 ! D58   D(1,6,16,17)         -177.1309         estimate D2E/DX2                !
 ! D59   D(1,6,16,18)          -58.2024         estimate D2E/DX2                !
 ! D60   D(1,6,16,19)           65.1209         estimate D2E/DX2                !
 ! D61   D(5,6,16,17)          -54.6874         estimate D2E/DX2                !
 ! D62   D(5,6,16,18)           64.2412         estimate D2E/DX2                !
 ! D63   D(5,6,16,19)         -172.4355         estimate D2E/DX2                !
 ! D64   D(11,6,16,17)          64.4445         estimate D2E/DX2                !
 ! D65   D(11,6,16,18)        -176.6269         estimate D2E/DX2                !
 ! D66   D(11,6,16,19)         -53.3036         estimate D2E/DX2                !
 ! D67   D(6,11,35,28)          33.8458         estimate D2E/DX2                !
 ! D68   D(6,11,35,43)        -166.3242         estimate D2E/DX2                !
 ! D69   D(2,15,27,26)         -35.6593         estimate D2E/DX2                !
 ! D70   D(2,15,27,28)        -155.1786         estimate D2E/DX2                !
 ! D71   D(2,15,27,32)          87.0696         estimate D2E/DX2                !
 ! D72   D(6,16,19,20)         -67.8258         estimate D2E/DX2                !
 ! D73   D(6,16,19,84)         105.1647         estimate D2E/DX2                !
 ! D74   D(17,16,19,20)        172.6503         estimate D2E/DX2                !
 ! D75   D(17,16,19,84)        -14.3591         estimate D2E/DX2                !
 ! D76   D(18,16,19,20)         55.022          estimate D2E/DX2                !
 ! D77   D(18,16,19,84)       -131.9875         estimate D2E/DX2                !
 ! D78   D(16,19,84,81)       -141.1936         estimate D2E/DX2                !
 ! D79   D(20,19,84,81)         28.7673         estimate D2E/DX2                !
 ! D80   D(29,24,25,26)        -56.0647         estimate D2E/DX2                !
 ! D81   D(29,24,25,30)         64.934          estimate D2E/DX2                !
 ! D82   D(29,24,25,37)        177.7995         estimate D2E/DX2                !
 ! D83   D(63,24,25,26)         75.9349         estimate D2E/DX2                !
 ! D84   D(63,24,25,30)       -163.0664         estimate D2E/DX2                !
 ! D85   D(63,24,25,37)        -50.2009         estimate D2E/DX2                !
 ! D86   D(25,24,29,28)         62.9521         estimate D2E/DX2                !
 ! D87   D(25,24,29,34)        -56.0179         estimate D2E/DX2                !
 ! D88   D(25,24,29,38)       -172.1404         estimate D2E/DX2                !
 ! D89   D(63,24,29,28)        -79.1809         estimate D2E/DX2                !
 ! D90   D(63,24,29,34)        161.8491         estimate D2E/DX2                !
 ! D91   D(63,24,29,38)         45.7267         estimate D2E/DX2                !
 ! D92   D(25,24,63,62)         36.9816         estimate D2E/DX2                !
 ! D93   D(29,24,63,62)        171.3118         estimate D2E/DX2                !
 ! D94   D(24,25,26,27)         50.5417         estimate D2E/DX2                !
 ! D95   D(24,25,26,31)        -67.2631         estimate D2E/DX2                !
 ! D96   D(24,25,26,36)        170.9594         estimate D2E/DX2                !
 ! D97   D(30,25,26,27)        -71.1168         estimate D2E/DX2                !
 ! D98   D(30,25,26,31)        171.0784         estimate D2E/DX2                !
 ! D99   D(30,25,26,36)         49.3009         estimate D2E/DX2                !
 ! D100  D(37,25,26,27)        173.7101         estimate D2E/DX2                !
 ! D101  D(37,25,26,31)         55.9054         estimate D2E/DX2                !
 ! D102  D(37,25,26,36)        -65.8722         estimate D2E/DX2                !
 ! D103  D(24,25,37,49)         70.8965         estimate D2E/DX2                !
 ! D104  D(26,25,37,49)        -54.9795         estimate D2E/DX2                !
 ! D105  D(30,25,37,49)       -172.655          estimate D2E/DX2                !
 ! D106  D(25,26,27,15)       -168.6946         estimate D2E/DX2                !
 ! D107  D(25,26,27,28)        -51.3897         estimate D2E/DX2                !
 ! D108  D(25,26,27,32)         67.6737         estimate D2E/DX2                !
 ! D109  D(31,26,27,15)        -49.4334         estimate D2E/DX2                !
 ! D110  D(31,26,27,28)         67.8716         estimate D2E/DX2                !
 ! D111  D(31,26,27,32)       -173.065          estimate D2E/DX2                !
 ! D112  D(36,26,27,15)         71.5257         estimate D2E/DX2                !
 ! D113  D(36,26,27,28)       -171.1693         estimate D2E/DX2                !
 ! D114  D(36,26,27,32)        -52.106          estimate D2E/DX2                !
 ! D115  D(25,26,36,44)         84.5179         estimate D2E/DX2                !
 ! D116  D(27,26,36,44)       -154.1214         estimate D2E/DX2                !
 ! D117  D(31,26,36,44)        -35.9508         estimate D2E/DX2                !
 ! D118  D(15,27,28,29)       -177.7799         estimate D2E/DX2                !
 ! D119  D(15,27,28,33)        -58.77           estimate D2E/DX2                !
 ! D120  D(15,27,28,35)         60.7271         estimate D2E/DX2                !
 ! D121  D(26,27,28,29)         57.6978         estimate D2E/DX2                !
 ! D122  D(26,27,28,33)        176.7076         estimate D2E/DX2                !
 ! D123  D(26,27,28,35)        -63.7953         estimate D2E/DX2                !
 ! D124  D(32,27,28,29)        -60.1542         estimate D2E/DX2                !
 ! D125  D(32,27,28,33)         58.8556         estimate D2E/DX2                !
 ! D126  D(32,27,28,35)        178.3527         estimate D2E/DX2                !
 ! D127  D(27,28,29,24)        -63.9128         estimate D2E/DX2                !
 ! D128  D(27,28,29,34)         56.3706         estimate D2E/DX2                !
 ! D129  D(27,28,29,38)        175.5499         estimate D2E/DX2                !
 ! D130  D(33,28,29,24)        177.2599         estimate D2E/DX2                !
 ! D131  D(33,28,29,34)        -62.4567         estimate D2E/DX2                !
 ! D132  D(33,28,29,38)         56.7226         estimate D2E/DX2                !
 ! D133  D(35,28,29,24)         53.3801         estimate D2E/DX2                !
 ! D134  D(35,28,29,34)        173.6635         estimate D2E/DX2                !
 ! D135  D(35,28,29,38)        -67.1572         estimate D2E/DX2                !
 ! D136  D(27,28,35,11)        -20.7284         estimate D2E/DX2                !
 ! D137  D(27,28,35,43)        175.3406         estimate D2E/DX2                !
 ! D138  D(29,28,35,11)       -139.1867         estimate D2E/DX2                !
 ! D139  D(29,28,35,43)         56.8823         estimate D2E/DX2                !
 ! D140  D(33,28,35,11)         97.6861         estimate D2E/DX2                !
 ! D141  D(33,28,35,43)        -66.245          estimate D2E/DX2                !
 ! D142  D(24,29,38,39)         59.0029         estimate D2E/DX2                !
 ! D143  D(24,29,38,40)        177.6968         estimate D2E/DX2                !
 ! D144  D(24,29,38,41)        -61.2665         estimate D2E/DX2                !
 ! D145  D(28,29,38,39)       -178.7137         estimate D2E/DX2                !
 ! D146  D(28,29,38,40)        -60.0199         estimate D2E/DX2                !
 ! D147  D(28,29,38,41)         61.0169         estimate D2E/DX2                !
 ! D148  D(34,29,38,39)        -59.0797         estimate D2E/DX2                !
 ! D149  D(34,29,38,40)         59.6142         estimate D2E/DX2                !
 ! D150  D(34,29,38,41)       -179.3491         estimate D2E/DX2                !
 ! D151  D(25,37,49,48)        121.9017         estimate D2E/DX2                !
 ! D152  D(25,37,49,50)       -117.3721         estimate D2E/DX2                !
 ! D153  D(25,37,49,55)          1.7042         estimate D2E/DX2                !
 ! D154  D(29,38,41,42)        172.2714         estimate D2E/DX2                !
 ! D155  D(39,38,41,42)         53.1202         estimate D2E/DX2                !
 ! D156  D(40,38,41,42)        -68.0026         estimate D2E/DX2                !
 ! D157  D(50,45,46,47)        -63.9987         estimate D2E/DX2                !
 ! D158  D(50,45,46,51)         60.1628         estimate D2E/DX2                !
 ! D159  D(50,45,46,58)       -176.3895         estimate D2E/DX2                !
 ! D160  D(82,45,46,47)         61.9826         estimate D2E/DX2                !
 ! D161  D(82,45,46,51)       -173.8559         estimate D2E/DX2                !
 ! D162  D(82,45,46,58)        -50.4082         estimate D2E/DX2                !
 ! D163  D(46,45,50,49)         65.4224         estimate D2E/DX2                !
 ! D164  D(46,45,50,54)        -54.8815         estimate D2E/DX2                !
 ! D165  D(46,45,50,59)       -171.9062         estimate D2E/DX2                !
 ! D166  D(82,45,50,49)        -52.4937         estimate D2E/DX2                !
 ! D167  D(82,45,50,54)       -172.7976         estimate D2E/DX2                !
 ! D168  D(82,45,50,59)         70.1778         estimate D2E/DX2                !
 ! D169  D(46,45,82,81)       -139.5423         estimate D2E/DX2                !
 ! D170  D(50,45,82,81)        -15.2903         estimate D2E/DX2                !
 ! D171  D(45,46,47,48)         52.3306         estimate D2E/DX2                !
 ! D172  D(45,46,47,52)        -64.9157         estimate D2E/DX2                !
 ! D173  D(45,46,47,57)        174.0238         estimate D2E/DX2                !
 ! D174  D(51,46,47,48)        -68.8264         estimate D2E/DX2                !
 ! D175  D(51,46,47,52)        173.9272         estimate D2E/DX2                !
 ! D176  D(51,46,47,57)         52.8668         estimate D2E/DX2                !
 ! D177  D(58,46,47,48)        167.8736         estimate D2E/DX2                !
 ! D178  D(58,46,47,52)         50.6272         estimate D2E/DX2                !
 ! D179  D(58,46,47,57)        -70.4332         estimate D2E/DX2                !
 ! D180  D(45,46,58,66)        -51.1382         estimate D2E/DX2                !
 ! D181  D(47,46,58,66)       -165.9711         estimate D2E/DX2                !
 ! D182  D(51,46,58,66)         70.0147         estimate D2E/DX2                !
 ! D183  D(46,47,48,49)        -45.092          estimate D2E/DX2                !
 ! D184  D(46,47,48,53)         75.7133         estimate D2E/DX2                !
 ! D185  D(46,47,48,56)       -164.04           estimate D2E/DX2                !
 ! D186  D(52,47,48,49)         70.4675         estimate D2E/DX2                !
 ! D187  D(52,47,48,53)       -168.7272         estimate D2E/DX2                !
 ! D188  D(52,47,48,56)        -48.4805         estimate D2E/DX2                !
 ! D189  D(57,47,48,49)       -170.6497         estimate D2E/DX2                !
 ! D190  D(57,47,48,53)        -49.8444         estimate D2E/DX2                !
 ! D191  D(57,47,48,56)         70.4023         estimate D2E/DX2                !
 ! D192  D(46,47,57,65)         63.574          estimate D2E/DX2                !
 ! D193  D(48,47,57,65)       -170.7397         estimate D2E/DX2                !
 ! D194  D(52,47,57,65)        -53.9907         estimate D2E/DX2                !
 ! D195  D(47,48,49,37)        164.0371         estimate D2E/DX2                !
 ! D196  D(47,48,49,50)         44.2743         estimate D2E/DX2                !
 ! D197  D(47,48,49,55)        -75.0762         estimate D2E/DX2                !
 ! D198  D(53,48,49,37)         42.2936         estimate D2E/DX2                !
 ! D199  D(53,48,49,50)        -77.4692         estimate D2E/DX2                !
 ! D200  D(53,48,49,55)        163.1803         estimate D2E/DX2                !
 ! D201  D(56,48,49,37)        -77.1885         estimate D2E/DX2                !
 ! D202  D(56,48,49,50)        163.0488         estimate D2E/DX2                !
 ! D203  D(56,48,49,55)         43.6983         estimate D2E/DX2                !
 ! D204  D(47,48,56,64)        -56.4882         estimate D2E/DX2                !
 ! D205  D(49,48,56,64)       -178.7782         estimate D2E/DX2                !
 ! D206  D(53,48,56,64)         63.2823         estimate D2E/DX2                !
 ! D207  D(37,49,50,45)       -171.5905         estimate D2E/DX2                !
 ! D208  D(37,49,50,54)        -51.1857         estimate D2E/DX2                !
 ! D209  D(37,49,50,59)         69.7489         estimate D2E/DX2                !
 ! D210  D(48,49,50,45)        -52.6405         estimate D2E/DX2                !
 ! D211  D(48,49,50,54)         67.7642         estimate D2E/DX2                !
 ! D212  D(48,49,50,59)       -171.3011         estimate D2E/DX2                !
 ! D213  D(55,49,50,45)         67.6696         estimate D2E/DX2                !
 ! D214  D(55,49,50,54)       -171.9256         estimate D2E/DX2                !
 ! D215  D(55,49,50,59)        -50.991          estimate D2E/DX2                !
 ! D216  D(45,50,59,60)         52.3043         estimate D2E/DX2                !
 ! D217  D(45,50,59,61)        171.0156         estimate D2E/DX2                !
 ! D218  D(45,50,59,62)        -67.5203         estimate D2E/DX2                !
 ! D219  D(49,50,59,60)        172.6072         estimate D2E/DX2                !
 ! D220  D(49,50,59,61)        -68.6815         estimate D2E/DX2                !
 ! D221  D(49,50,59,62)         52.7826         estimate D2E/DX2                !
 ! D222  D(54,50,59,60)        -65.7087         estimate D2E/DX2                !
 ! D223  D(54,50,59,61)         53.0026         estimate D2E/DX2                !
 ! D224  D(54,50,59,62)        174.4667         estimate D2E/DX2                !
 ! D225  D(46,58,66,67)       -143.7173         estimate D2E/DX2                !
 ! D226  D(46,58,66,68)        -26.6345         estimate D2E/DX2                !
 ! D227  D(46,58,66,69)         96.4932         estimate D2E/DX2                !
 ! D228  D(50,59,62,63)       -110.3985         estimate D2E/DX2                !
 ! D229  D(50,59,62,83)         20.9007         estimate D2E/DX2                !
 ! D230  D(60,59,62,63)        130.4276         estimate D2E/DX2                !
 ! D231  D(60,59,62,83)        -98.2731         estimate D2E/DX2                !
 ! D232  D(61,59,62,63)         11.0122         estimate D2E/DX2                !
 ! D233  D(61,59,62,83)        142.3114         estimate D2E/DX2                !
 ! D234  D(59,62,63,24)         42.0121         estimate D2E/DX2                !
 ! D235  D(83,62,63,24)        -94.8615         estimate D2E/DX2                !
 ! D236  D(59,62,83,81)         42.3587         estimate D2E/DX2                !
 ! D237  D(63,62,83,81)        171.2149         estimate D2E/DX2                !
 ! D238  D(58,66,69,70)        -76.5874         estimate D2E/DX2                !
 ! D239  D(58,66,69,71)        169.0826         estimate D2E/DX2                !
 ! D240  D(58,66,69,72)         46.2519         estimate D2E/DX2                !
 ! D241  D(67,66,69,70)        167.3112         estimate D2E/DX2                !
 ! D242  D(67,66,69,71)         52.9812         estimate D2E/DX2                !
 ! D243  D(67,66,69,72)        -69.8495         estimate D2E/DX2                !
 ! D244  D(68,66,69,70)         46.3803         estimate D2E/DX2                !
 ! D245  D(68,66,69,71)        -67.9497         estimate D2E/DX2                !
 ! D246  D(68,66,69,72)        169.2195         estimate D2E/DX2                !
 ! D247  D(66,69,72,73)        -32.1267         estimate D2E/DX2                !
 ! D248  D(66,69,72,74)         82.0942         estimate D2E/DX2                !
 ! D249  D(66,69,72,75)       -154.2936         estimate D2E/DX2                !
 ! D250  D(70,69,72,73)         88.4358         estimate D2E/DX2                !
 ! D251  D(70,69,72,74)       -157.3433         estimate D2E/DX2                !
 ! D252  D(70,69,72,75)        -33.7311         estimate D2E/DX2                !
 ! D253  D(71,69,72,73)       -153.848          estimate D2E/DX2                !
 ! D254  D(71,69,72,74)        -39.6271         estimate D2E/DX2                !
 ! D255  D(71,69,72,75)         83.9851         estimate D2E/DX2                !
 ! D256  D(69,72,75,76)        172.6106         estimate D2E/DX2                !
 ! D257  D(69,72,75,77)        -71.3467         estimate D2E/DX2                !
 ! D258  D(69,72,75,78)         49.5315         estimate D2E/DX2                !
 ! D259  D(73,72,75,76)         50.1736         estimate D2E/DX2                !
 ! D260  D(73,72,75,77)        166.2162         estimate D2E/DX2                !
 ! D261  D(73,72,75,78)        -72.9055         estimate D2E/DX2                !
 ! D262  D(74,72,75,76)        -63.1365         estimate D2E/DX2                !
 ! D263  D(74,72,75,77)         52.9061         estimate D2E/DX2                !
 ! D264  D(74,72,75,78)        173.7844         estimate D2E/DX2                !
 ! D265  D(72,75,78,79)        -76.2257         estimate D2E/DX2                !
 ! D266  D(72,75,78,80)        164.4496         estimate D2E/DX2                !
 ! D267  D(72,75,78,81)         42.048          estimate D2E/DX2                !
 ! D268  D(76,75,78,79)        161.5318         estimate D2E/DX2                !
 ! D269  D(76,75,78,80)         42.207          estimate D2E/DX2                !
 ! D270  D(76,75,78,81)        -80.1945         estimate D2E/DX2                !
 ! D271  D(77,75,78,79)         47.235          estimate D2E/DX2                !
 ! D272  D(77,75,78,80)        -72.0898         estimate D2E/DX2                !
 ! D273  D(77,75,78,81)        165.5087         estimate D2E/DX2                !
 ! D274  D(75,78,81,82)        -56.5057         estimate D2E/DX2                !
 ! D275  D(75,78,81,83)       -166.7937         estimate D2E/DX2                !
 ! D276  D(75,78,81,84)         67.0592         estimate D2E/DX2                !
 ! D277  D(79,78,81,82)         65.0099         estimate D2E/DX2                !
 ! D278  D(79,78,81,83)        -45.2781         estimate D2E/DX2                !
 ! D279  D(79,78,81,84)       -171.4252         estimate D2E/DX2                !
 ! D280  D(80,78,81,82)        179.2975         estimate D2E/DX2                !
 ! D281  D(80,78,81,83)         69.0095         estimate D2E/DX2                !
 ! D282  D(80,78,81,84)        -57.1376         estimate D2E/DX2                !
 ! D283  D(78,81,82,45)       -126.5115         estimate D2E/DX2                !
 ! D284  D(83,81,82,45)        -10.9622         estimate D2E/DX2                !
 ! D285  D(84,81,82,45)        102.7348         estimate D2E/DX2                !
 ! D286  D(78,81,83,62)         90.2369         estimate D2E/DX2                !
 ! D287  D(82,81,83,62)        -27.1699         estimate D2E/DX2                !
 ! D288  D(84,81,83,62)       -138.2048         estimate D2E/DX2                !
 ! D289  D(78,81,84,19)        161.6888         estimate D2E/DX2                !
 ! D290  D(82,81,84,19)        -71.9608         estimate D2E/DX2                !
 ! D291  D(83,81,84,19)         35.6417         estimate D2E/DX2                !
 --------------------------------------------------------------------------------
 Trust Radius=3.00D-01 FncErr=1.00D-07 GrdErr=1.00D-06
 Number of steps in this run=    504 maximum allowed number of steps=    504.
 GradGradGradGradGradGradGradGradGradGradGradGradGradGradGradGradGradGrad

 Leave Link  103 at Thu Apr  7 13:29:48 2016, MaxMem= 10737418240 cpu:         0.5
 (Enter /share/apps//g09/l202.exe)
 Stoichiometry    C23H44NO16(1+)
 Framework group  C1[X(C23H44NO16)]
 Deg. of freedom   246
 Full point group                 C1      NOp   1
 RotChk:  IX=3 Diff= 1.81D+00
 Largest Abelian subgroup         C1      NOp   1
 Largest concise Abelian subgroup C1      NOp   1
                         Standard orientation:                         
 ---------------------------------------------------------------------
 Center     Atomic      Atomic             Coordinates (Angstroms)
 Number     Number       Type             X           Y           Z
 ---------------------------------------------------------------------
      1          8           0        2.594805    1.249112   -0.968092
      2          6           0        3.739528    0.442655   -0.965353
      3          6           0        4.936524    1.199477   -0.400898
      4          6           0        4.607300    1.778799    0.970858
      5          6           0        3.339580    2.621293    0.914652
      6          6           0        2.235781    1.772875    0.303857
      7          1           0        3.897662    0.158841   -2.005942
      8          1           0        5.154498    2.021834   -1.087376
      9          1           0        4.437579    0.947289    1.672094
     10          1           0        3.050350    2.880675    1.946643
     11          1           0        2.037738    0.950632    1.003731
     12          8           0        3.520025    3.785625    0.146623
     13          8           0        5.644128    2.619137    1.425933
     14          8           0        6.098806    0.404672   -0.339570
     15          8           0        3.561196   -0.687186   -0.141432
     16          6           0        0.981486    2.566771    0.062684
     17          1           0        0.666678    3.048282    0.992616
     18          1           0        1.168133    3.346973   -0.679705
     19          8           0       -0.094909    1.720876   -0.346226
     20          1           0        0.113021    1.374580   -1.225623
     21          1           0        4.370463    4.158916    0.405966
     22          1           0        6.481567    2.187501    1.225928
     23          1           0        5.849396   -0.427204    0.078034
     24          8           0        0.185926   -3.134541   -0.101741
     25          6           0        0.423283   -2.510625   -1.349617
     26          6           0        1.413259   -1.330327   -1.253239
     27          6           0        2.687257   -1.740315   -0.510910
     28          6           0        2.290862   -2.388514    0.810347
     29          6           0        1.386352   -3.577578    0.505691
     30          1           0        0.827753   -3.246257   -2.058387
     31          1           0        0.957411   -0.521751   -0.680025
     32          1           0        3.226380   -2.467228   -1.137614
     33          1           0        3.196328   -2.740279    1.325264
     34          1           0        1.929989   -4.252480   -0.176156
     35          8           0        1.643618   -1.384943    1.563962
     36          8           0        1.739716   -0.918141   -2.551425
     37          8           0       -0.809638   -2.155084   -1.893015
     38          6           0        0.993866   -4.390046    1.717545
     39          1           0        0.367143   -5.229559    1.395241
     40          1           0        1.899200   -4.786678    2.193567
     41          8           0        0.276097   -3.536953    2.604140
     42          1           0       -0.089959   -4.052983    3.326034
     43          1           0        1.314895   -1.784167    2.377436
     44          1           0        1.042683   -0.306679   -2.829789
     45          8           0       -3.634645   -0.515465   -0.279546
     46          6           0       -4.046574    0.350696   -1.326935
     47          6           0       -2.802692    0.981424   -1.925328
     48          6           0       -1.748573   -0.022614   -2.330651
     49          6           0       -1.510235   -1.093398   -1.281154
     50          6           0       -2.838687   -1.616658   -0.723255
     51          1           0       -4.649763   -0.222216   -2.050833
     52          1           0       -2.382387    1.598190   -1.114126
     53          1           0       -2.048452   -0.519781   -3.263305
     54          1           0       -3.375253   -2.171390   -1.507337
     55          1           0       -0.933125   -0.674051   -0.449598
     56          8           0       -0.528576    0.687076   -2.513993
     57          8           0       -3.063838    1.761596   -3.062745
     58          8           0       -4.732817    1.412468   -0.782272
     59          6           0       -2.663393   -2.533975    0.473407
     60          1           0       -3.654006   -2.749701    0.883171
     61          1           0       -2.199385   -3.467849    0.153283
     62          8           0       -1.867545   -1.924851    1.476523
     63          1           0       -1.025378   -2.409617    1.492402
     64          1           0       -0.693248    1.377768   -3.167632
     65          1           0       -3.620736    2.503196   -2.808005
     66          6           0       -5.807584    1.174961    0.128252
     67          1           0       -6.548079    1.949409   -0.087465
     68          1           0       -6.267847    0.198029   -0.054333
     69          6           0       -5.289324    1.284864    1.565406
     70          1           0       -4.738100    0.365210    1.789956
     71          1           0       -6.143612    1.297059    2.250535
     72          6           0       -4.412801    2.530548    1.762949
     73          1           0       -3.886965    2.736904    0.824536
     74          1           0       -5.049897    3.404388    1.930951
     75          6           0       -3.369495    2.471310    2.885931
     76          1           0       -2.742112    3.366602    2.816942
     77          1           0       -3.847088    2.510997    3.870661
     78          6           0       -2.489922    1.224627    2.885824
     79          1           0       -3.036676    0.361707    3.273167
     80          1           0       -1.609113    1.358832    3.516855
     81          7           0       -2.030347    0.818755    1.531772
     82          1           0       -2.821918    0.666154    0.894632
     83          1           0       -1.633168   -0.147005    1.581624
     84          1           0       -1.373748    1.430937    1.022200
 ---------------------------------------------------------------------
 Rotational constants (GHZ):      0.1293556      0.0689960      0.0599772
 Leave Link  202 at Thu Apr  7 13:29:48 2016, MaxMem= 10737418240 cpu:         2.2
 (Enter /share/apps//g09/l301.exe)
 Standard basis: 6-311+G(d,p) (5D, 7F)
 Ernie: Thresh=  0.10000D-02 Tol=  0.10000D-05 Strict=F.
 There are  1184 symmetry adapted cartesian basis functions of A   symmetry.
 There are  1144 symmetry adapted basis functions of A   symmetry.
  1144 basis functions,  1792 primitive gaussians,  1184 cartesian basis functions
   158 alpha electrons      158 beta electrons
       nuclear repulsion energy      6052.0494512125 Hartrees.
 IExCor= 1009 DFT=T Ex+Corr=PBE1PBE ExCW=0 ScaHFX=  0.250000
 ScaDFX=  0.750000  0.750000  1.000000  1.000000 ScalE2=  1.000000  1.000000
 IRadAn=      0 IRanWt=     -1 IRanGd=            0 ICorTp=0 IEmpDi=131
 NAtoms=   84 NActive=   84 NUniq=   84 SFac= 1.00D+00 NAtFMM=   60 NAOKFM=T Big=T
 Integral buffers will be    131072 words long.
 Raffenetti 2 integral format.
 Two-electron integral symmetry is turned on.
 R6Disp:  Grimme-D3 Dispersion energy=       -0.0912794501 Hartrees.
 Nuclear repulsion after empirical dispersion term =     6051.9581717624 Hartrees.
 Leave Link  301 at Thu Apr  7 13:29:49 2016, MaxMem= 10737418240 cpu:         1.9
 (Enter /share/apps//g09/l302.exe)
 NPDir=0 NMtPBC=     1 NCelOv=     1 NCel=       1 NClECP=     1 NCelD=      1
         NCelK=      1 NCelE2=     1 NClLst=     1 CellRange=     0.0.
 One-electron integrals computed using PRISM.
 NBasis=  1144 RedAO= T EigKep=  1.05D-06  NBF=  1144
 NBsUse=  1143 1.00D-06 EigRej=  9.55D-07 NBFU=  1143
 Precomputing XC quadrature grid using
 IXCGrd= 4 IRadAn=           0 IRanWt=          -1 IRanGd=           0 AccXCQ= 0.00D+00.
 Generated NRdTot=       0 NPtTot=           0 NUsed=           0 NTot=          32
 NSgBfM=  1099  1099  1099  1102  1103 MxSgAt=    84 MxSgA2=    84.
 Leave Link  302 at Thu Apr  7 13:29:52 2016, MaxMem= 10737418240 cpu:        51.7
 (Enter /share/apps//g09/l303.exe)
 DipDrv:  MaxL=1.
 Leave Link  303 at Thu Apr  7 13:29:54 2016, MaxMem= 10737418240 cpu:        26.6
 (Enter /share/apps//g09/l401.exe)
 ExpMin= 4.38D-02 ExpMax= 8.59D+03 ExpMxC= 1.30D+03 IAcc=2 IRadAn=         4 AccDes= 0.00D+00
 Harris functional with IExCor= 1009 and IRadAn=       4 diagonalized for initial guess.
 HarFok:  IExCor= 1009 AccDes= 0.00D+00 IRadAn=         4 IDoV= 1 UseB2=F ITyADJ=14
 ICtDFT=  3500011 ScaDFX=  1.000000  1.000000  1.000000  1.000000
 FoFCou: FMM=F IPFlag=           0 FMFlag=      100000 FMFlg1=        2001
         NFxFlg=           0 DoJE=T BraDBF=F KetDBF=T FulRan=T
         wScrn=  0.000000 ICntrl=     500 IOpCl=  0 I1Cent=   200000004 NGrid=           0
         NMat0=    1 NMatS0=      1 NMatT0=    0 NMatD0=    1 NMtDS0=    0 NMtDT0=    0
 Petite list used in FoFCou.
 Harris En= -2159.72307808887    
 JPrj=0 DoOrth=F DoCkMO=F.
 Leave Link  401 at Thu Apr  7 13:30:01 2016, MaxMem= 10737418240 cpu:       119.3
 (Enter /share/apps//g09/l502.exe)
 Closed shell SCF:
 Using DIIS extrapolation, IDIIS=  1040.
 Integral symmetry usage will be decided dynamically.
 IVT=     4256630 IEndB=     4256630 NGot= 10737418240 MDV= 10734581291
 LenX= 10734581291 LenY= 10733178251
 Requested convergence on RMS density matrix=1.00D-08 within 128 cycles.
 Requested convergence on MAX density matrix=1.00D-06.
 Requested convergence on             energy=1.00D-06.
 No special actions if energy rises.
 Fock matrices will be formed incrementally for  20 cycles.

 Cycle   1  Pass 1  IDiag  1:
 FoFJK:  IHMeth= 1 ICntrl=       0 DoSepK=F KAlg= 0 I1Cent=   0 FoldK=F
 IRaf= 790000000 NMat=   1 IRICut=       1 DoRegI=T DoRafI=F ISym2E= 0.
 FoFCou: FMM=T IPFlag=           0 FMFlag=      100000 FMFlg1=        2001
         NFxFlg=           0 DoJE=F BraDBF=F KetDBF=F FulRan=T
         wScrn=  0.000000 ICntrl=       0 IOpCl=  0 I1Cent=           0 NGrid=           0
         NMat0=    1 NMatS0=      1 NMatT0=    0 NMatD0=    1 NMtDS0=    0 NMtDT0=    0
 Symmetry not used in FoFCou.
 FMM levels:  10  Number of levels for PrismC:   9
 E= -2158.66197385061    
 DIIS: error= 1.33D-02 at cycle   1 NSaved=   1.
 NSaved= 1 IEnMin= 1 EnMin= -2158.66197385061     IErMin= 1 ErrMin= 1.33D-02
 ErrMax= 1.33D-02  0.00D+00 EMaxC= 1.00D-01 BMatC= 1.05D+00 BMatP= 1.05D+00
 IDIUse=3 WtCom= 8.67D-01 WtEn= 1.33D-01
 Coeff-Com:  0.100D+01
 Coeff-En:   0.100D+01
 Coeff:      0.100D+01
 Gap=     0.251 Goal=   None    Shift=    0.000
 GapD=    0.251 DampG=1.000 DampE=0.500 DampFc=0.5000 IDamp=-1.
 Damping current iteration by 5.00D-01
 RMSDP=1.19D-02 MaxDP=1.46D+00              OVMax= 1.42D-01

 Cycle   2  Pass 1  IDiag  1:
 RMSU=  5.93D-03    CP:  1.00D+00
 E= -2158.96028414206     Delta-E=       -0.298310291451 Rises=F Damp=T
 DIIS: error= 3.17D-03 at cycle   2 NSaved=   2.
 NSaved= 2 IEnMin= 2 EnMin= -2158.96028414206     IErMin= 2 ErrMin= 3.17D-03
 ErrMax= 3.17D-03  0.00D+00 EMaxC= 1.00D-01 BMatC= 8.03D-02 BMatP= 1.05D+00
 IDIUse=3 WtCom= 9.68D-01 WtEn= 3.17D-02
 Coeff-Com:  0.493D-01 0.951D+00
 Coeff-En:   0.139D+00 0.861D+00
 Coeff:      0.522D-01 0.948D+00
 Gap=     0.263 Goal=   None    Shift=    0.000
 RMSDP=5.67D-03 MaxDP=1.60D+00 DE=-2.98D-01 OVMax= 7.93D-02

 Cycle   3  Pass 1  IDiag  1:
 RMSU=  3.85D-03    CP:  9.26D-01  9.27D-01
 E= -2159.33909167721     Delta-E=       -0.378807535148 Rises=F Damp=F
 DIIS: error= 3.13D-03 at cycle   3 NSaved=   3.
 NSaved= 3 IEnMin= 3 EnMin= -2159.33909167721     IErMin= 3 ErrMin= 3.13D-03
 ErrMax= 3.13D-03  0.00D+00 EMaxC= 1.00D-01 BMatC= 4.34D-02 BMatP= 8.03D-02
 IDIUse=3 WtCom= 9.69D-01 WtEn= 3.13D-02
 Coeff-Com: -0.697D-01 0.407D+00 0.663D+00
 Coeff-En:   0.000D+00 0.000D+00 0.100D+01
 Coeff:     -0.675D-01 0.394D+00 0.673D+00
 Gap=     0.248 Goal=   None    Shift=    0.000
 RMSDP=1.42D-03 MaxDP=2.55D-01 DE=-3.79D-01 OVMax= 1.77D-02

 Cycle   4  Pass 1  IDiag  1:
 RMSU=  1.17D-03    CP:  9.21D-01  9.77D-01  8.24D-01
 E= -2159.36631641689     Delta-E=       -0.027224739682 Rises=F Damp=F
 DIIS: error= 1.07D-03 at cycle   4 NSaved=   4.
 NSaved= 4 IEnMin= 4 EnMin= -2159.36631641689     IErMin= 4 ErrMin= 1.07D-03
 ErrMax= 1.07D-03  0.00D+00 EMaxC= 1.00D-01 BMatC= 5.22D-03 BMatP= 4.34D-02
 IDIUse=3 WtCom= 9.89D-01 WtEn= 1.07D-02
 Coeff-Com: -0.357D-01 0.122D+00 0.333D+00 0.580D+00
 Coeff-En:   0.000D+00 0.000D+00 0.477D-01 0.952D+00
 Coeff:     -0.353D-01 0.121D+00 0.330D+00 0.584D+00
 Gap=     0.241 Goal=   None    Shift=    0.000
 RMSDP=1.07D-03 MaxDP=3.62D-01 DE=-2.72D-02 OVMax= 5.76D-03

 Cycle   5  Pass 1  IDiag  1:
 RMSU=  4.03D-04    CP:  9.04D-01  9.66D-01  8.26D-01  6.89D-01
 E= -2159.37069101247     Delta-E=       -0.004374595585 Rises=F Damp=F
 DIIS: error= 2.76D-04 at cycle   5 NSaved=   5.
 NSaved= 5 IEnMin= 5 EnMin= -2159.37069101247     IErMin= 5 ErrMin= 2.76D-04
 ErrMax= 2.76D-04  0.00D+00 EMaxC= 1.00D-01 BMatC= 2.52D-04 BMatP= 5.22D-03
 IDIUse=3 WtCom= 9.97D-01 WtEn= 2.76D-03
 Coeff-Com: -0.111D-01 0.251D-01 0.972D-01 0.253D+00 0.636D+00
 Coeff-En:   0.000D+00 0.000D+00 0.000D+00 0.000D+00 0.100D+01
 Coeff:     -0.111D-01 0.251D-01 0.969D-01 0.253D+00 0.637D+00
 Gap=     0.242 Goal=   None    Shift=    0.000
 RMSDP=2.37D-04 MaxDP=6.64D-02 DE=-4.37D-03 OVMax= 1.58D-03

 Cycle   6  Pass 1  IDiag  1:
 RMSU=  8.75D-05    CP:  9.07D-01  9.73D-01  8.45D-01  6.99D-01  7.41D-01
 E= -2159.37087986319     Delta-E=       -0.000188850719 Rises=F Damp=F
 DIIS: error= 5.90D-05 at cycle   6 NSaved=   6.
 NSaved= 6 IEnMin= 6 EnMin= -2159.37087986319     IErMin= 6 ErrMin= 5.90D-05
 ErrMax= 5.90D-05  0.00D+00 EMaxC= 1.00D-01 BMatC= 1.76D-05 BMatP= 2.52D-04
 IDIUse=1 WtCom= 1.00D+00 WtEn= 0.00D+00
 Coeff-Com: -0.361D-02 0.640D-02 0.311D-01 0.954D-01 0.308D+00 0.562D+00
 Coeff:     -0.361D-02 0.640D-02 0.311D-01 0.954D-01 0.308D+00 0.562D+00
 Gap=     0.242 Goal=   None    Shift=    0.000
[...]
 02867,0.00000877,0.00002577,-0.00000103,0.00012228,-0.00007870,0.00003
 977,-0.00002114,0.00004616,0.00013877,0.00019177,0.00010546,-0.0000390
 8,0.00005969,0.00003622,0.00109178,0.00074535,0.00066452,-0.00004146,-
 0.00004060,0.00028208,-0.00048134,-0.00005040,0.00012826,-0.00002341,-
 0.00007164,-0.00005758,0.00000411,0.00005246,0.00000948,0.00000592,-0.
 00000854,0.00001149,-0.00031528,0.00024674,0.00021239,0.00010647,-0.00
 000351,0.00000897,-0.00061036,-0.00065325,0.00026023,0.00012324,0.0000
 6657,-0.00004909,0.00074713,0.00032542,-0.00170722,-0.00024940,-0.0010
 9611,0.00028111,0.00015243,0.00000684,0.00011429,0.00007408,0.00015441
 ,0.00015090,0.00058059,-0.00036064,-0.00023600,0.00068899,0.00104856,0
 .00092267,0.00006628,0.00012573,-0.00021986,-0.00001662,-0.00000599,0.
 00000597,-0.00002398,-0.00004442,0.00005222,-0.00008306,-0.00005930,-0
 .00011225,-0.00003362,0.00010317,-0.00064799,-0.00022288,-0.00002477,-
 0.00006026,-0.00013110,0.00008235,-0.00017690,0.00000476,0.00018030,0.
 00001768,-0.00067838,0.00158283,-0.00063614,-0.00027238,0.00035451,0.0
 0027976,-0.00006434,-0.00007263,-0.00009622,-0.00859855,-0.00097333,0.
 00305757,0.00199171,-0.00389003,-0.00115832,0.00003122,0.00002809,0.00
 001736,0.00001310,-0.00004339,0.00003470,0.00002217,0.00007314,0.00007
 858,0.00001482,0.00001425,-0.00005352,-0.00002837,-0.00000241,0.000020
 99,0.00003305,-0.00034681,0.00005390,-0.00016839,0.00007272,-0.0000354
 8,0.00002616,0.00004107,-0.00002727,0.00030548,0.00002869,-0.00017247,
 -0.00011813,0.00006501,-0.00009039,-0.00003306,0.00004719,-0.00008319,
 -0.00075606,-0.00001321,-0.00219229,-0.00003872,-0.00016852,-0.0001709
 2,-0.00007107,-0.00067955,-0.00000857,-0.00579689,-0.01107367,0.000621
 28,-0.00032559,-0.00022110,-0.00015323,0.00037918,0.00076233,0.0005210
 6,-0.09536107,-0.09251310,0.00444652,-0.01174452,-0.02834930,0.0048780
 6,0.10630862,-0.00069946,-0.00077617,-0.00048159,0.00046662,0.00111696
 ,-0.00023355,0.00002877,0.00003275,0.00011302,0.00008155,0.00020318,-0
 .00003264,0.00007238,-0.00012333,-0.00006561,0.00024222,0.00039426,0.0
 0053678,-0.00009933,-0.00005520,0.00001876,0.00004220,-0.00002057,0.00
 000127,-0.00001439,-0.00000739,0.00003235,0.00003138,-0.00003781,-0.00
 007163,0.00008044,0.00020895,-0.00006332,-0.00024122,-0.00002935,-0.00
 007472,-0.00015886,-0.00011603,-0.00004698,-0.00012627,-0.00020219,-0.
 00007999,0.00035748,-0.00111288,0.00023420,0.00119789,-0.00059336,-0.0
 0046109,0.00005041,-0.00014881,-0.00005045,-0.00022888,0.00011468,0.00
 004434,-0.00200648,0.00081713,-0.00202310,-0.00026514,0.00081118,0.000
 61801,0.00006789,0.00002055,0.00004056,0.00000399,0.00003431,0.0000276
 8,-0.00005276,0.00008576,0.00001893,0.00152080,-0.00000028,0.00134487,
 -0.00045072,0.00083293,-0.00160069,-0.00001173,0.00031635,-0.00013545,
 -0.00047375,0.00055529,0.00000147,-0.00017280,0.00005984,0.00003079,-0
 .00090142,-0.00022901,0.00044526,0.00008186,-0.00006827,0.00018875,-0.
 00002693,0.00018632,0.00004696,-0.00000676,-0.00008001,-0.00003069,0.0
 0006277,-0.00001486,-0.00001975,0.00021322,0.00006814,0.00003237,0.000
 79131,-0.00072366,-0.00014687,0.00023533,-0.00054569,0.00033408,0.0001
 2640,-0.00088127,0.00025571,-0.00075495,-0.00054880,-0.00089102,0.0000
 1891,-0.00002113,0.00013062,0.00023123,0.00016320,0.00009236,0.0021470
 6,0.00085097,-0.00045290,-0.00019193,-0.00001404,0.00040259,-0.0009404
 1,0.00050473,0.00026538,0.00004779,0.00027277,-0.00001420,-0.00009460,
 -0.00482643,-0.00127675,0.00060603,0.00164562,0.00004322,-0.00027950,0
 .00061076,0.00066686,0.00017923,0.00085480,-0.00018135,-0.00105594,0.0
 0005369,0.00015246,0.00125423,0.00343802,-0.00000519,0.00018900,-0.000
 15783,-0.00014237,0.00011120,-0.00031615,0.00002525,-0.00000210,-0.000
 14603,-0.00003524,-0.00032943,-0.00082934,0.00033935,0.00005103,0.0008
 6038,-0.00055161,0.00014290,-0.00094241,-0.00001479,0.00006474,-0.0004
 1877,-0.00025851,-0.00054470,-0.00118747,-0.00102407,0.00931857,0.0013
 2655,-0.00990356,-0.00132148,0.00055851,0.00111648,-0.00190473,0.00102
 408,0.00219337,-0.00708423,0.00263222,0.00856294,-0.00544267,-0.001649
 11,0.00208938,0.00012010,0.00010409,0.00011371,-0.00006436,0.00004433,
 0.00014166,0.00019847,0.00011269,0.00077493,-0.00004471,0.00000217,-0.
 00009216,0.00009228,-0.00008532,-0.00023112,-0.00008494,0.00010455,-0.
 00016109,-0.00020769,0.00038002,0.00012358,0.00016468,0.00001748,-0.00
 006576,-0.00034588,0.00042934,-0.00000227,0.00008366,-0.00026087,0.000
 44915,0.00037822,0.00001425,0.00001529,0.00100453,0.00018843,0.0014091
 2,-0.00000475,0.00007578,-0.00016627,0.00057446,0.00069291,0.00023796,
 -0.00395542,-0.00257287,-0.00835598,0.00120117,0.00103092,0.00170892,0
 .00050123,0.00006339,0.00055726,-0.09623085,-0.30857951,0.02348384,-0.
 00349209,0.00266859,0.00491257,0.10890817,0.31579807,-0.00003604,-0.00
 015906,-0.00015449,0.00000090,0.00015335,-0.00002494,-0.00001708,0.000
 01335,0.00001875,0.00000744,0.00000949,0.00001712,0.00001692,-0.000019
 88,0.00004747,0.00003366,0.00008174,0.00016663,-0.00003035,-0.00000122
 ,0.00000031,0.00000509,-0.00000181,-0.00000278,0.00000210,0.00000745,0
 .00000409,0.00000641,-0.00001987,-0.00003247,0.00001688,0.00003562,0.0
 0001616,-0.00002250,0.00000431,-0.00004784,-0.00000125,-0.00001869,-0.
 00003659,0.00001174,-0.00003433,-0.00003288,0.00013407,-0.00017178,-0.
 00003977,-0.00009581,-0.00006735,0.00013118,0.00004041,-0.00006452,-0.
 00003458,0.00003944,-0.00002394,-0.00002551,-0.00040514,-0.00052671,-0
 .00088028,-0.00027385,0.00034959,0.00001073,0.00000936,0.00000710,0.00
 001247,-0.00000290,0.00000513,0.00001528,-0.00002354,0.00001406,0.0000
 1620,0.00043282,0.00033049,-0.00021888,-0.00061972,-0.00032028,0.00017
 055,-0.00003680,-0.00006169,-0.00015965,-0.00016165,0.00006390,0.00012
 528,0.00008075,0.00017818,0.00016062,-0.00038141,-0.00015284,0.0002320
 4,0.00006139,0.00004426,-0.00000615,-0.00007788,0.00015439,0.00003055,
 0.00002728,0.00001251,-0.00003444,0.00001279,-0.00003516,-0.00003579,0
 .00007276,0.00001473,-0.00002179,-0.00002132,-0.00029866,-0.00049432,0
 .00017836,-0.00002282,0.00007467,0.00041443,0.00059078,0.00048978,0.00
 011959,0.00002835,0.00017691,-0.00003261,-0.00005519,-0.00001812,-0.00
 000613,-0.00000137,-0.00003787,0.00010401,-0.00012301,-0.00056816,0.00
 002468,0.00014405,0.00010946,0.00025156,0.00030972,0.00028177,-0.00009
 522,0.00002152,-0.00003867,-0.00113548,-0.00112462,0.00068930,0.000441
 05,0.00133021,-0.00010168,-0.00004369,0.00025022,0.00008982,-0.0002059
 1,0.00059146,-0.00006363,0.00055106,-0.00096455,-0.00109088,0.00064940
 ,-0.00069736,-0.00075401,-0.00003123,-0.00015044,0.00013455,0.00007433
 ,-0.00005329,0.00008063,-0.00002233,-0.00014716,0.00012925,-0.00020720
 ,0.00002614,0.00009305,-0.00097379,0.00026605,-0.00089954,0.00017822,-
 0.00029461,0.00008247,-0.00004093,-0.00025707,0.00006850,-0.00032112,-
 0.00046786,-0.00045418,0.00017449,-0.00278750,-0.00137763,-0.00019898,
 0.00015387,0.00019456,0.00019551,-0.00002218,-0.00022813,0.00201234,0.
 00454526,-0.00532357,-0.00135337,0.00046949,0.00093008,0.00001541,0.00
 006172,0.00000346,-0.00000520,0.00004300,0.00003474,0.00014097,0.00010
 403,0.00029282,-0.00002010,-0.00001154,-0.00005048,0.00002701,-0.00001
 381,-0.00003615,-0.00013256,-0.00009657,0.00003051,0.00002180,0.000127
 81,0.00006371,0.00005039,-0.00004090,-0.00003750,0.00035238,0.00094417
 ,-0.00053007,0.00025607,-0.00008911,0.00051212,0.00019348,-0.00002094,
 0.00015250,-0.00171500,0.00040604,-0.00632529,0.00017921,0.00005860,-0
 .00008117,-0.00084990,-0.00145612,0.00013941,-0.01297824,-0.03107881,0
 .00303667,-0.00057238,0.00027166,0.00105907,0.00074336,-0.00055514,0.0
 0000151,0.00447536,0.02310364,-0.06080725,0.01030449,0.02677182,-0.002
 08613,-0.00758391,-0.02906374,0.07399979,0.00148562,0.00095538,0.00071
 028,-0.00100801,-0.00135391,-0.00002017,-0.00019346,-0.00003302,-0.000
 14958,-0.00032251,-0.00028120,0.00008972,-0.00012521,0.00058342,0.0003
 9826,-0.00051233,-0.00062474,-0.00083233,0.00013087,0.00008456,0.00000
 976,-0.00003459,0.00001603,-0.00001046,0.00000382,0.00000186,0.0000006
 6,-0.00003153,0.00002163,0.00003795,-0.00033776,-0.00031004,0.00017873
 ,0.00056686,-0.00033962,0.00003573,0.00057546,-0.00000211,-0.00005890,
 0.00043503,0.00024463,0.00006450,-0.00001814,0.00103793,-0.00016217,-0
 .00524344,0.00314895,0.00183212,0.00014627,0.00034375,-0.00022356,0.00
 099675,-0.00059174,-0.00015398,-0.00191717,0.00264411,0.00639832,0.002
 52116,-0.00451095,-0.00142731,-0.00009435,0.00007990,-0.00002599,-0.00
 006096,-0.00001543,-0.00000845,-0.00006988,-0.00008072,0.00000348,-0.0
 0049226,0.00017625,-0.00021331,0.00074424,-0.00023770,0.00015386,-0.00
 022355,-0.00029183,-0.00018427,0.00027886,-0.00048286,-0.00005313,-0.0
 0012129,-0.00019018,-0.00019448,0.00026197,-0.00005102,-0.00009712,-0.
 00009629,0.00005261,-0.00000466,0.00003823,-0.00024626,-0.00005135,0.0
 0003901,0.00009364,0.00003484,0.00004392,0.00005205,0.00002567,-0.0000
 4826,0.00000879,0.00000709,0.00002634,0.00057005,-0.00001813,-0.000163
 87,0.00036032,0.00019785,-0.00072946,-0.00002507,-0.00008436,0.0001873
 6,0.00008934,0.00027495,-0.00003387,0.00002087,-0.00004245,-0.00004221
 ,-0.00005019,-0.00001556,-0.00057351,-0.00008501,-0.00012573,0.0001147
 8,0.00005510,0.00000407,0.00031782,-0.00017765,0.00013841,0.00014174,-
 0.00017133,-0.00015696,0.00022137,-0.00092324,-0.00093078,-0.00004612,
 0.00007769,0.00123205,-0.00022839,0.00015215,0.00040035,0.00110443,-0.
 00055005,0.00028749,0.00035800,0.00012477,-0.00004397,0.00067480,0.000
 86651,0.00051730,0.00001242,-0.00004391,-0.00017786,0.00052961,-0.0002
 3292,0.00010172,-0.00019702,0.00006873,-0.00001077,-0.00009522,-0.0000
 4126,-0.00015140,0.00042100,-0.00038975,0.00009726,-0.00110866,0.00093
 347,0.00052971,-0.00026922,0.00016905,-0.00044585,-0.00014403,-0.00018
 849,-0.00083555,-0.00088921,-0.00006103,0.00086308,0.00006179,0.000046
 79,-0.00012722,0.00018815,-0.00015288,-0.00017690,-0.00022462,-0.00334
 820,-0.00124649,0.00085311,-0.00005730,-0.00021222,0.00013890,-0.00000
 552,-0.00015848,0.00012357,-0.00009750,0.00010609,0.00001291,-0.000014
 85,0.00046399,-0.00001117,0.00003382,-0.00005634,0.00000948,-0.0000548
 2,-0.00010402,-0.00011766,0.00004396,-0.00011642,-0.00003298,0.0000740
 9,0.00001556,0.00008741,-0.00007679,-0.00000272,-0.00039168,0.00059922
 ,-0.00033387,-0.00009992,-0.00041946,0.00069081,0.00038818,-0.00000933
 ,0.00015497,-0.00047221,-0.00059599,0.00022780,-0.00003567,-0.00000178
 ,-0.00019562,0.00033708,0.00022117,0.00009121,-0.00442787,-0.00011806,
 -0.00426178,0.00128740,-0.00032346,0.00077651,0.00096308,-0.00005964,0
 .00104184,-0.21780337,0.13237242,-0.07442164,-0.01826666,0.01678472,-0
 .00896308,0.01478630,-0.00302952,0.00759133,0.22574044,-0.00088788,-0.
 00077516,-0.00018659,0.00045360,0.00091435,-0.00012487,0.00007306,-0.0
 0000011,0.00007545,0.00011394,0.00023307,-0.00005094,-0.00008363,-0.00
 032680,-0.00012958,0.00012443,0.00095157,-0.00008760,-0.00008476,-0.00
 005056,0.00000655,0.00002975,-0.00001199,0.00000890,-0.00001794,-0.000
 01968,0.00001774,0.00002765,-0.00000210,-0.00002236,-0.00011188,0.0000
 1663,0.00002610,-0.00021417,-0.00000180,-0.00000797,-0.00025677,-0.000
 06282,0.00001778,-0.00019341,-0.00014791,-0.00003311,0.00013631,-0.000
 70079,0.00018270,0.00273838,-0.00203911,-0.00017044,0.00039715,-0.0002
 0366,-0.00014571,-0.00014361,0.00000356,-0.00006509,0.00078963,-0.0064
 1565,-0.00405866,-0.00303656,0.00231880,0.00074446,0.00005721,-0.00003
 736,0.00002450,0.00001591,0.00001950,0.00000807,0.00000278,0.00005300,
 -0.00000301,0.00019411,0.00002272,0.00013141,-0.00038658,-0.00001119,-
 0.00015965,0.00001934,0.00000803,-0.00017370,-0.00025249,0.00034954,0.
 00004500,-0.00015145,-0.00019785,-0.00031372,-0.00007269,-0.00000519,0
 .00008594,0.00005092,0.00000166,0.00000565,-0.00008065,0.00024337,-0.0
 0004391,0.00001985,-0.00005386,-0.00000300,0.00005664,0.00007853,0.000
 03404,0.00000883,0.00003217,0.00001674,0.00058835,0.00018233,0.0003026
 5,0.00011384,-0.00021907,0.00016695,0.00022624,0.00023453,0.00036181,-
 0.00008848,-0.00009147,-0.00013524,0.00001113,0.00000756,0.00002319,0.
 00002242,0.00001741,0.00000514,0.00014693,0.00012787,0.00009658,-0.000
 02968,-0.00003197,0.00000414,-0.00024328,-0.00018484,0.00003868,0.0000
 0439,0.00016554,0.00002576,-0.00042572,0.00045862,0.00098167,0.0002806
 1,0.00053620,-0.00082371,-0.00007079,0.00022108,0.00019212,-0.00047324
 ,0.00052491,-0.00024112,0.00040974,-0.00038213,-0.00066699,-0.00017330
 ,-0.00043987,-0.00002980,0.00001508,-0.00006574,0.00013730,-0.00022686
 ,0.00014602,0.00011383,0.00005320,-0.00013200,0.00006510,-0.00002878,0
 .00009644,0.00005783,-0.00049611,-0.00002206,-0.00025922,0.00048472,-0
 .00068486,-0.00028391,0.00017386,-0.00023856,0.00004313,0.00004483,-0.
 00018068,0.00024476,0.00012956,-0.00022210,-0.00027488,-0.00003083,-0.
 00000017,0.00002924,0.00000213,0.00001953,-0.00001523,-0.00093239,-0.0
 0075859,-0.00008772,0.00002118,-0.00053792,-0.00007402,-0.00002889,0.0
 0007315,0.00012254,-0.00012783,0.00007918,0.00002374,-0.00003483,-0.00
 008037,-0.00021178,-0.00001284,-0.00001850,0.00007090,0.00003174,0.000
 00216,-0.00000074,0.00010661,0.00031899,-0.00001498,0.00011104,-0.0003
 1802,-0.00003943,-0.00001947,-0.00012914,0.00003605,-0.00010892,-0.000
 05360,-0.00024693,-0.00030123,0.00007585,0.00031471,-0.00004425,-0.000
 08688,0.00013912,-0.00051153,0.00182750,-0.00030095,0.00042427,-0.0007
 2426,-0.00008587,0.00015986,-0.00062826,0.00012373,-0.01145601,0.01374
 213,0.00074242,-0.00200241,-0.00059441,-0.00378121,0.00023673,0.000285
 33,0.00038978,0.13093586,-0.17366329,0.05927255,-0.00029680,-0.0011866
 1,-0.00155062,0.02635652,-0.01405969,0.00947417,-0.14226139,0.18240986
 ,0.00094811,0.00061108,-0.00000865,-0.00066733,-0.00104151,0.00000850,
 -0.00014415,0.00000873,-0.00008001,-0.00017461,-0.00033241,0.00002670,
 0.00021681,0.00059890,0.00045387,0.00035750,-0.00131525,-0.00024131,0.
 00006639,0.00005528,0.00000010,-0.00003041,0.00001373,-0.00001322,0.00
 002104,0.00002866,-0.00001132,-0.00000434,-0.00002201,-0.00007520,0.00
 002309,0.00006408,0.00005947,0.00033492,-0.00010576,-0.00010699,0.0004
 2412,0.00003878,-0.00007068,0.00030569,0.00015420,0.00000766,-0.000002
 93,0.00073144,-0.00022592,-0.00366190,0.00311739,0.00598924,0.00033351
 ,-0.00050674,-0.00066498,0.00129736,-0.00083329,-0.00062109,0.00412118
 ,-0.00129783,-0.00142813,0.00182472,-0.00224543,-0.00192989,-0.0000433
 1,0.00009371,-0.00001153,-0.00002664,-0.00001791,0.00000160,-0.0000472
 3,-0.00005275,0.00001943,-0.00020013,0.00022820,-0.00047311,0.00014546
 ,-0.00038207,0.00049589,-0.00013598,-0.00024504,-0.00009213,0.00015155
 ,-0.00033599,0.00007081,0.00014726,0.00010839,0.00025817,-0.00001293,-
 0.00007287,-0.00002269,-0.00004201,0.00005795,-0.00002826,-0.00004405,
 -0.00021158,0.00004481,0.00003141,0.00007877,-0.00001249,-0.00002237,-
 0.00003756,-0.00003814,-0.00000111,-0.00002288,-0.00001812,-0.00044451
 ,-0.00004530,-0.00051454,0.00001811,0.00035217,-0.00001616,-0.00026336
 ,0.00047104,0.00000015,0.00020220,0.00013694,0.00027327,-0.00002593,-0
 .00000966,-0.00003712,-0.00003909,-0.00003177,-0.00003035,-0.00038830,
 -0.00019436,-0.00018924,0.00005273,0.00006430,0.00001392,0.00033263,0.
 00019446,0.00011194,-0.00008986,-0.00023487,-0.00010617,0.00031896,-0.
 00067092,-0.00295617,0.00025421,-0.00074912,0.00126043,0.00063715,-0.0
 0065590,-0.00088540,0.00052445,-0.00050338,0.00002834,0.00057083,-0.00
 041877,-0.00040176,0.00080401,0.00062196,0.00037568,-0.00008849,0.0001
 2190,-0.00029358,0.00036713,0.00032232,-0.00012464,-0.00007022,0.00011
 469,0.00007637,-0.00015624,-0.00007769,-0.00015368,-0.00010615,-0.0005
 2718,0.00028236,-0.00057297,0.00083243,0.00059790,-0.00066184,0.000185
 56,0.00038374,-0.00047234,-0.00000975,-0.00074606,-0.00071960,0.000122
 97,0.00093988,0.00006386,0.00005577,-0.00015772,0.00012054,-0.00011631
 ,-0.00011798,-0.00008721,-0.00206383,-0.00088480,0.00050242,0.00005704
 ,-0.00005178,0.00001254,-0.00000927,-0.00021543,0.00026492,-0.00003726
 ,0.00000397,0.00026069,0.00003065,0.00065237,-0.00002450,0.00002153,-0
 .00011713,-0.00003814,-0.00001826,-0.00009177,0.00001032,-0.00032281,-
 0.00000835,-0.00016263,0.00039938,-0.00008309,0.00014134,0.00016830,-0
 .00011665,0.00001062,-0.00029146,0.00055146,-0.00009400,-0.00004848,0.
 00004258,0.00011780,0.00009708,-0.00008707,0.00019149,-0.00051304,0.00
 103687,-0.00004723,-0.00048533,0.00008479,0.00049202,0.00020356,0.0000
 0125,-0.01793403,0.01756728,-0.00870021,-0.00112759,-0.00207898,-0.003
 56441,0.00072443,0.00094846,0.00056077,-0.07738781,0.06282666,-0.09807
 850,0.01648183,-0.01672045,0.01564710,0.00053408,0.00413365,-0.0009332
 9,0.07150203,-0.06012639,0.09547559\\-0.00000917,-0.00001718,-0.000021
 94,0.00001046,0.00003205,-0.00001761,-0.00000493,-0.00000963,0.0000082
 1,0.00000520,-0.00000513,0.00000040,0.00001240,-0.00002429,0.00000388,
 -0.00001091,0.00002570,0.00004399,-0.00000307,-0.00000265,0.00000289,-
 0.00000188,0.00000033,0.00000281,-0.00000041,-0.00000092,0.00000338,-0
 .00000020,0.00000298,0.00000109,-0.00001732,0.00000640,-0.00002208,0.0
 0000264,0.00000975,-0.00000247,-0.00000360,0.00000344,0.00000156,0.000
 00452,-0.00000033,0.00000332,-0.00001254,-0.00000194,0.00003441,0.0000
 1508,-0.00000606,-0.00001413,-0.00000929,0.00000012,0.00000344,0.00000
 137,-0.00000120,-0.00000022,-0.00000179,0.00000661,-0.00000549,-0.0000
 0618,0.00000541,0.00000161,-0.00000255,-0.00000198,0.00000244,-0.00000
 005,-0.00000154,0.00000795,-0.00000084,-0.00000052,0.00000592,-0.00000
 636,0.00000280,0.00002139,0.00001731,-0.00000863,-0.00001485,-0.000007
 05,0.00001130,0.00005484,0.00001789,-0.00002666,-0.00001848,-0.0000037
 8,0.00001849,0.00000889,-0.00000180,0.00000433,-0.00001170,-0.00000227
 ,0.00000091,-0.00000003,-0.00000074,-0.00000478,-0.00000621,0.00000122
 ,0.00000323,0.00000074,0.00000342,0.00000123,0.00000474,0.00000303,-0.
 00000043,0.00000296,0.00001386,-0.00000815,0.00001962,-0.00001769,-0.0
 0000357,-0.00003176,0.00001160,0.00002039,0.00002720,-0.00000066,0.000
 00050,0.00000949,0.00000288,-0.00000013,0.00000116,0.00000389,-0.00000
 054,0.00000229,0.00000880,-0.00000595,-0.00000043,-0.00000018,0.000002
 37,0.00000448,0.00000247,-0.00001374,-0.00000603,-0.00000040,-0.000001
 40,0.00001013,0.00002088,0.00000853,-0.00006582,-0.00003195,-0.0000743
 5,0.00001605,0.00000795,0.00000812,-0.00002197,-0.00002123,0.00001632,
 -0.00000405,-0.00002084,-0.00004413,-0.00002615,0.00001314,0.00002640,
 0.00002102,0.00000323,0.00000780,0.00000007,-0.00000637,-0.00000045,0.
 00000249,-0.00000820,0.00000389,-0.00000364,-0.00000089,-0.00000616,-0
 .00000138,-0.00000393,0.00000366,0.00000286,0.00001104,-0.00000197,-0.
 00000421,0.00000479,-0.00001295,0.00000468,0.00001508,0.00004228,0.000
 00885,-0.00001221,0.00000332,0.00002540,-0.00000017,-0.00000931,-0.000
 00375,-0.00000211,-0.00000359,-0.00000844,0.00002136,0.00001762,-0.000
 02639,0.00000823,-0.00001792,-0.00001485,-0.00000692,-0.00000265,0.000
 00076,-0.00000822,0.00000282,-0.00000173,-0.00000322,-0.00000413,-0.00
 000637,0.00000231,0.00000239,-0.00000524,0.00000129,0.00000203,-0.0000
 0563,0.00001158,-0.00000407,-0.00000035,-0.00000184,0.00000211,-0.0000
 0568,-0.00000168,0.00000398,-0.00000472,-0.00000770,-0.00000150,0.0000
 0647,0.00000031,0.00000272,-0.00000767,0.00000178,0.00000251,-0.000008
 71,0.00001266,0.00001844,-0.00001079,0.00000180,-0.00000166,-0.0000006
 4,0.00000278,-0.00000132,-0.00000292,-0.00001150,-0.00001186,-0.000012
 06,0.00000385,0.00000174,-0.00000060,0.00000378,0.00000233,-0.00000152
 ,0.00003082,0.00000107,-0.00001423,-0.00002966,0.00001381,0.00002980,-
 0.00003653,0.00001015,0.00001889,0.00002413,-0.00001700,0.00001039\\\@


 BRING ME INTO THE COMPANY OF THOSE WHO SEEK TRUTH,
 AND DELIVER ME FROM THOSE WHO HAVE FOUND IT.
 Job cpu time:      18 days  3 hours 11 minutes 29.4 seconds.
 File lengths (MBytes):  RWF=  17342 Int=      0 D2E=      0 Chk=    103 Scr=      1
 Normal termination of Gaussian 09 at Sat Apr  9 16:36:08 2016.
