 Entering Gaussian System, Link 0=g09
 Initial command:
 /share/apps//g09/l1.exe "/scratch/Gau-43121.inp" -scrdir="/scratch/"
 Entering Link 1 = /share/apps//g09/l1.exe PID=     43122.
  
 Copyright (c) 1988,1990,1992,1993,1995,1998,2003,2009,2013,
            Gaussian, Inc.  All Rights Reserved.
  
 This is part of the Gaussian(R) 09 program.  It is based on
 the Gaussian(R) 03 system (copyright 2003, Gaussian, Inc.),
 the Gaussian(R) 98 system (copyright 1998, Gaussian, Inc.),
 the Gaussian(R) 94 system (copyright 1995, Gaussian, Inc.),
 the Gaussian 92(TM) system (copyright 1992, Gaussian, Inc.),
 the Gaussian 90(TM) system (copyright 1990, Gaussian, Inc.),
 the Gaussian 88(TM) system (copyright 1988, Gaussian, Inc.),
 the Gaussian 86(TM) system (copyright 1986, Carnegie Mellon
 University), and the Gaussian 82(TM) system (copyright 1983,
 Carnegie Mellon University). Gaussian is a federally registered
 trademark of Gaussian, Inc.
  
 This software contains proprietary and confidential information,
 including trade secrets, belonging to Gaussian, Inc.
  
 This software is provided under written license and may be
 used, copied, transmitted, or stored only in accord with that
 written license.
  
 The following legend is applicable only to US Government
 contracts under FAR:
  
                    RESTRICTED RIGHTS LEGEND
  
 Use, reproduction and disclosure by the US Government is
 subject to restrictions as set forth in subparagraphs (a)
 and (c) of the Commercial Computer Software - Restricted
 Rights clause in FAR 52.227-19.
  
 Gaussian, Inc.
 340 Quinnipiac St., Bldg. 40, Wallingford CT 06492
  
  
 ---------------------------------------------------------------
 Warning -- This program may not be used in any manner that
 competes with the business of Gaussian, Inc. or will provide
 assistance to any competitor of Gaussian, Inc.  The licensee
 of this program is prohibited from giving any competitor of
 Gaussian, Inc. access to this program.  By using this program,
 the user acknowledges that Gaussian, Inc. is engaged in the
 business of creating and licensing software in the field of
 computational chemistry and represents and warrants to the
 licensee that it is not a competitor of Gaussian, Inc. and that
 it will not use this program in any manner prohibited above.
 ---------------------------------------------------------------
  

 Cite this work as:
 Gaussian 09, Revision D.01,
 M. J. Frisch, G. W. Trucks, H. B. Schlegel, G. E. Scuseria, 
 M. A. Robb, J. R. Cheeseman, G. Scalmani, V. Barone, B. Mennucci, 
 G. A. Petersson, H. Nakatsuji, M. Caricato, X. Li, H. P. Hratchian, 
 A. F. Izmaylov, J. Bloino, G. Zheng, J. L. Sonnenberg, M. Hada, 
 M. Ehara, K. Toyota, R. Fukuda, J. Hasegawa, M. Ishida, T. Nakajima, 
 Y. Honda, O. Kitao, H. Nakai, T. Vreven, J. A. Montgomery, Jr., 
 J. E. Peralta, F. Ogliaro, M. Bearpark, J. J. Heyd, E. Brothers, 
 K. N. Kudin, V. N. Staroverov, T. Keith, R. Kobayashi, J. Normand, 
 K. Raghavachari, A. Rendell, J. C. Burant, S. S. Iyengar, J. Tomasi, 
 M. Cossi, N. Rega, J. M. Millam, M. Klene, J. E. Knox, J. B. Cross, 
 V. Bakken, C. Adamo, J. Jaramillo, R. Gomperts, R. E. Stratmann, 
 O. Yazyev, A. J. Austin, R. Cammi, C. Pomelli, J. W. Ochterski, 
 R. L. Martin, K. Morokuma, V. G. Zakrzewski, G. A. Voth, 
 P. Salvador, J. J. Dannenberg, S. Dapprich, A. D. Daniels, 
 O. Farkas, J. B. Foresman, J. V. Ortiz, J. Cioslowski, 
 and D. J. Fox, Gaussian, Inc., Wallingford CT, 2013.
 
 ******************************************
 Gaussian 09:  EM64L-G09RevD.01 24-Apr-2013
                30-Mar-2016 
 ******************************************
 %nproc=20
 Will use up to   20 processors via shared memory.
 %mem=80GB
 %chk=Tri_A154_of.chk
 ----------------------------------------------------------------------
 #P PBE1PBE/6-311+G(d,p) opt=ModRedundant optcyc=999 freq EmpiricalDisp
 ersion=GD3
 ----------------------------------------------------------------------
 1/6=999,14=-1,18=120,19=15,26=3,38=1/1,3;
 2/9=110,12=2,17=6,18=5,40=1/2;
 3/5=4,6=6,7=111,11=2,16=1,25=1,30=1,71=1,74=-13,124=31/1,2,3;
 4//1;
 5/5=2,38=5/2;
 6/7=2,8=2,9=2,10=2,28=1/1;
 7//1,2,3,16;
 1/6=999,14=-1,18=20,19=15,26=3/3(2);
 2/9=110/2;
 99//99;
 2/9=110/2;
 3/5=4,6=6,7=111,11=2,16=1,25=1,30=1,71=1,74=-13,124=31/1,2,3;
 4/5=5,16=3,69=1/1;
 5/5=2,38=5/2;
 7//1,2,3,16;
 1/6=999,14=-1,18=20,19=15,26=3/3(-5);
 2/9=110/2;
 6/7=2,8=2,9=2,10=2,19=2,28=1/1;
 99/9=1/99;
 Leave Link    1 at Wed Mar 30 16:12:18 2016, MaxMem= 10737418240 cpu:         3.7
 (Enter /share/apps//g09/l101.exe)
 -------
 disacch
 -------
 Symbolic Z-matrix:
 Charge =  1 Multiplicity = 1
 O                    -3.8287    1.1205    1.45278 
 C                    -2.57979   1.85688   1.49592 
 C                    -2.08731   2.27667   0.10167 
 C                    -3.18135   2.75217  -0.8459 
 C                    -4.39106   1.81734  -0.84114 
 C                    -4.88005   1.64152   0.61053 
 C                    -6.05301   0.66318   0.74755 
 O                    -5.80112  -0.62365   0.1553 
 O                    -4.02686   0.57045  -1.43657 
 O                    -2.64729   2.82036  -2.18724 
 O                    -1.12506   3.32497   0.18091 
 O                    -1.59742   0.96333   1.90541 
 C                    -1.54767   0.46791   3.26349 
 C                    -0.21671   0.91197   3.86529 
 O                    -0.20317   2.33323   3.9514 
 C                     0.91244   0.41264   2.96381 
 C                     0.82459  -1.10451   2.6814 
 O                    -0.50636  -1.53664   2.35218 
 C                    -1.55447  -1.07339   3.20261 
 C                    -2.84325  -1.73707   2.70733 
 O                    -3.17968  -1.46805   1.33394 
 O                     1.6572   -1.52347   1.62442 
 C                     1.48834  -0.86913   0.35063 
 C                     2.8123   -0.19497  -0.01716 
 C                     2.81053   0.30252  -1.45921 
 C                     2.43983  -0.83504  -2.40894 
 O                     1.1588   -1.35663  -2.03191 
 C                     1.11436  -1.92854  -0.71245 
 C                    -0.29505  -2.48763  -0.56681 
 O                    -1.28054  -1.4577   -0.75055 
 O                     2.31666  -0.30171  -3.69053 
 C                     2.47172  -1.24908  -4.7856 
 C                     1.59274  -0.80395  -5.95163 
 C                     0.16316  -1.38012  -5.99746 
 C                    -0.69209  -1.292    -4.72161 
 C                    -0.89939   0.12665  -4.20646 
 N                    -1.80168   0.1438   -3.00927 
 O                     4.11631   0.82026  -1.70378 
 O                     3.05909   0.90661   0.8724 
 O                     2.1509    0.74439   3.57352 
 H                    -2.69665   2.71684   2.1826 
 H                    -1.63924   1.35997  -0.3218 
 H                    -3.51833   3.75853  -0.53946 
 H                    -5.20227   2.29881  -1.42069 
 H                    -5.21426   2.62286   0.99996 
 H                    -6.92608   1.07454   0.22196 
 H                    -6.31285   0.56005   1.81256 
 H                    -5.19519  -1.13734   0.73352 
 H                    -4.68601  -0.08739  -1.09571 
 H                    -1.97025   3.52297  -2.17419 
 H                    -0.41897   3.04747   0.79396 
 H                    -2.39329   0.85138   3.85655 
 H                    -0.11848   0.46215   4.87298 
 H                     0.70811   2.57875   4.20167 
 H                     0.80583   0.95662   2.01339 
 H                     1.19996  -1.65906   3.56074 
 H                    -1.40781  -1.44028   4.24107 
 H                    -2.72171  -2.82551   2.78572 
 H                    -3.67337  -1.43588   3.36949 
 H                    -3.33779  -0.48941   1.28318 
 H                     0.67432  -0.12854   0.38688 
 H                     3.62005  -0.94338   0.09828 
 H                     2.04163   1.09244  -1.57175 
 H                     3.2026   -1.64159  -2.37357 
 H                     1.82772  -2.77327  -0.63404 
 H                    -0.4351   -3.26359  -1.3374 
 H                    -0.40435  -2.94414   0.42455 
 H                    -1.89678  -1.47873   0.02489 
 H                     2.20286  -2.26089  -4.44079 
 H                     3.53459  -1.25287  -5.07652 
 H                     2.09374  -1.09234  -6.88826 
 H                     1.58132   0.29825  -5.95523 
 H                     0.22552  -2.44594  -6.26901 
 H                    -0.37305  -0.89534  -6.82994 
 H                    -0.23689  -1.88756  -3.91619 
 H                    -1.67244  -1.74776  -4.94255 
 H                     0.0533    0.56889  -3.88947 
 H                    -1.35719   0.77678  -4.96633 
 H                    -2.74201  -0.21696  -3.21801 
 H                    -1.98082   1.11619  -2.67033 
 H                    -1.45039  -0.44164  -2.20186 
 H                     4.12223   1.20722  -2.59732 
 H                     3.8556    1.35365   0.52791 
 H                     2.79428   0.80098   2.83429 
 
 The following ModRedundant input section has been read:
 B      10      80 B                                                           
 B      30      81 B                                                           
 
 NAtoms=     84 NQM=       84 NQMF=       0 NMMI=      0 NMMIF=      0
                NMic=       0 NMicF=      0.
                    Isotopes and Nuclear Properties:
 (Nuclear quadrupole moments (NQMom) in fm**2, nuclear magnetic moments (NMagM)
  in nuclear magnetons)

  Atom         1           2           3           4           5           6           7           8           9          10
 IAtWgt=          16          12          12          12          12          12          12          16          16          16
 AtmWgt=  15.9949146  12.0000000  12.0000000  12.0000000  12.0000000  12.0000000  12.0000000  15.9949146  15.9949146  15.9949146
 NucSpn=           0           0           0           0           0           0           0           0           0           0
 AtZEff=   0.0000000   0.0000000   0.0000000   0.0000000   0.0000000   0.0000000   0.0000000   0.0000000   0.0000000   0.0000000
 NQMom=    0.0000000   0.0000000   0.0000000   0.0000000   0.0000000   0.0000000   0.0000000   0.0000000   0.0000000   0.0000000
 NMagM=    0.0000000   0.0000000   0.0000000   0.0000000   0.0000000   0.0000000   0.0000000   0.0000000   0.0000000   0.0000000
 AtZNuc=   8.0000000   6.0000000   6.0000000   6.0000000   6.0000000   6.0000000   6.0000000   8.0000000   8.0000000   8.0000000

  Atom        11          12          13          14          15          16          17          18          19          20
 IAtWgt=          16          16          12          12          16          12          12          16          12          12
 AtmWgt=  15.9949146  15.9949146  12.0000000  12.0000000  15.9949146  12.0000000  12.0000000  15.9949146  12.0000000  12.0000000
 NucSpn=           0           0           0           0           0           0           0           0           0           0
 AtZEff=   0.0000000   0.0000000   0.0000000   0.0000000   0.0000000   0.0000000   0.0000000   0.0000000   0.0000000   0.0000000
 NQMom=    0.0000000   0.0000000   0.0000000   0.0000000   0.0000000   0.0000000   0.0000000   0.0000000   0.0000000   0.0000000
 NMagM=    0.0000000   0.0000000   0.0000000   0.0000000   0.0000000   0.0000000   0.0000000   0.0000000   0.0000000   0.0000000
 AtZNuc=   8.0000000   8.0000000   6.0000000   6.0000000   8.0000000   6.0000000   6.0000000   8.0000000   6.0000000   6.0000000

  Atom        21          22          23          24          25          26          27          28          29          30
 IAtWgt=          16          16          12          12          12          12          16          12          12          16
 AtmWgt=  15.9949146  15.9949146  12.0000000  12.0000000  12.0000000  12.0000000  15.9949146  12.0000000  12.0000000  15.9949146
 NucSpn=           0           0           0           0           0           0           0           0           0           0
 AtZEff=   0.0000000   0.0000000   0.0000000   0.0000000   0.0000000   0.0000000   0.0000000   0.0000000   0.0000000   0.0000000
 NQMom=    0.0000000   0.0000000   0.0000000   0.0000000   0.0000000   0.0000000   0.0000000   0.0000000   0.0000000   0.0000000
 NMagM=    0.0000000   0.0000000   0.0000000   0.0000000   0.0000000   0.0000000   0.0000000   0.0000000   0.0000000   0.0000000
 AtZNuc=   8.0000000   8.0000000   6.0000000   6.0000000   6.0000000   6.0000000   8.0000000   6.0000000   6.0000000   8.0000000

  Atom        31          32          33          34          35          36          37          38          39          40
 IAtWgt=          16          12          12          12          12          12          14          16          16          16
 AtmWgt=  15.9949146  12.0000000  12.0000000  12.0000000  12.0000000  12.0000000  14.0030740  15.9949146  15.9949146  15.9949146
 NucSpn=           0           0           0           0           0           0           2           0           0           0
 AtZEff=   0.0000000   0.0000000   0.0000000   0.0000000   0.0000000   0.0000000   0.0000000   0.0000000   0.0000000   0.0000000
 NQMom=    0.0000000   0.0000000   0.0000000   0.0000000   0.0000000   0.0000000   2.0440000   0.0000000   0.0000000   0.0000000
 NMagM=    0.0000000   0.0000000   0.0000000   0.0000000   0.0000000   0.0000000   0.4037610   0.0000000   0.0000000   0.0000000
 AtZNuc=   8.0000000   6.0000000   6.0000000   6.0000000   6.0000000   6.0000000   7.0000000   8.0000000   8.0000000   8.0000000

  Atom        41          42          43          44          45          46          47          48          49          50
 IAtWgt=           1           1           1           1           1           1           1           1           1           1
 AtmWgt=   1.0078250   1.0078250   1.0078250   1.0078250   1.0078250   1.0078250   1.0078250   1.0078250   1.0078250   1.0078250
 NucSpn=           1           1           1           1           1           1           1           1           1           1
 AtZEff=   0.0000000   0.0000000   0.0000000   0.0000000   0.0000000   0.0000000   0.0000000   0.0000000   0.0000000   0.0000000
 NQMom=    0.0000000   0.0000000   0.0000000   0.0000000   0.0000000   0.0000000   0.0000000   0.0000000   0.0000000   0.0000000
 NMagM=    2.7928460   2.7928460   2.7928460   2.7928460   2.7928460   2.7928460   2.7928460   2.7928460   2.7928460   2.7928460
 AtZNuc=   1.0000000   1.0000000   1.0000000   1.0000000   1.0000000   1.0000000   1.0000000   1.0000000   1.0000000   1.0000000

  Atom        51          52          53          54          55          56          57          58          59          60
 IAtWgt=           1           1           1           1           1           1           1           1           1           1
 AtmWgt=   1.0078250   1.0078250   1.0078250   1.0078250   1.0078250   1.0078250   1.0078250   1.0078250   1.0078250   1.0078250
 NucSpn=           1           1           1           1           1           1           1           1           1           1
 AtZEff=   0.0000000   0.0000000   0.0000000   0.0000000   0.0000000   0.0000000   0.0000000   0.0000000   0.0000000   0.0000000
 NQMom=    0.0000000   0.0000000   0.0000000   0.0000000   0.0000000   0.0000000   0.0000000   0.0000000   0.0000000   0.0000000
 NMagM=    2.7928460   2.7928460   2.7928460   2.7928460   2.7928460   2.7928460   2.7928460   2.7928460   2.7928460   2.7928460
 AtZNuc=   1.0000000   1.0000000   1.0000000   1.0000000   1.0000000   1.0000000   1.0000000   1.0000000   1.0000000   1.0000000

  Atom        61          62          63          64          65          66          67          68          69          70
 IAtWgt=           1           1           1           1           1           1           1           1           1           1
 AtmWgt=   1.0078250   1.0078250   1.0078250   1.0078250   1.0078250   1.0078250   1.0078250   1.0078250   1.0078250   1.0078250
 NucSpn=           1           1           1           1           1           1           1           1           1           1
 AtZEff=   0.0000000   0.0000000   0.0000000   0.0000000   0.0000000   0.0000000   0.0000000   0.0000000   0.0000000   0.0000000
 NQMom=    0.0000000   0.0000000   0.0000000   0.0000000   0.0000000   0.0000000   0.0000000   0.0000000   0.0000000   0.0000000
 NMagM=    2.7928460   2.7928460   2.7928460   2.7928460   2.7928460   2.7928460   2.7928460   2.7928460   2.7928460   2.7928460
 AtZNuc=   1.0000000   1.0000000   1.0000000   1.0000000   1.0000000   1.0000000   1.0000000   1.0000000   1.0000000   1.0000000

  Atom        71          72          73          74          75          76          77          78          79          80
 IAtWgt=           1           1           1           1           1           1           1           1           1           1
 AtmWgt=   1.0078250   1.0078250   1.0078250   1.0078250   1.0078250   1.0078250   1.0078250   1.0078250   1.0078250   1.0078250
 NucSpn=           1           1           1           1           1           1           1           1           1           1
 AtZEff=   0.0000000   0.0000000   0.0000000   0.0000000   0.0000000   0.0000000   0.0000000   0.0000000   0.0000000   0.0000000
 NQMom=    0.0000000   0.0000000   0.0000000   0.0000000   0.0000000   0.0000000   0.0000000   0.0000000   0.0000000   0.0000000
 NMagM=    2.7928460   2.7928460   2.7928460   2.7928460   2.7928460   2.7928460   2.7928460   2.7928460   2.7928460   2.7928460
 AtZNuc=   1.0000000   1.0000000   1.0000000   1.0000000   1.0000000   1.0000000   1.0000000   1.0000000   1.0000000   1.0000000

  Atom        81          82          83          84
 IAtWgt=           1           1           1           1
 AtmWgt=   1.0078250   1.0078250   1.0078250   1.0078250
 NucSpn=           1           1           1           1
 AtZEff=   0.0000000   0.0000000   0.0000000   0.0000000
 NQMom=    0.0000000   0.0000000   0.0000000   0.0000000
 NMagM=    2.7928460   2.7928460   2.7928460   2.7928460
 AtZNuc=   1.0000000   1.0000000   1.0000000   1.0000000
 Leave Link  101 at Wed Mar 30 16:12:18 2016, MaxMem= 10737418240 cpu:         5.0
 (Enter /share/apps//g09/l103.exe)

 GradGradGradGradGradGradGradGradGradGradGradGradGradGradGradGradGradGrad
 Berny optimization.
 Initialization pass.
                           ----------------------------
                           !    Initial Parameters    !
                           ! (Angstroms and Degrees)  !
 --------------------------                            --------------------------
 ! Name  Definition              Value          Derivative Info.                !
 --------------------------------------------------------------------------------
 ! R1    R(1,2)                  1.4505         estimate D2E/DX2                !
 ! R2    R(1,6)                  1.4444         estimate D2E/DX2                !
 ! R3    R(2,3)                  1.5371         estimate D2E/DX2                !
 ! R4    R(2,12)                 1.3897         estimate D2E/DX2                !
 ! R5    R(2,41)                 1.1067         estimate D2E/DX2                !
 ! R6    R(3,4)                  1.5235         estimate D2E/DX2                !
 ! R7    R(3,11)                 1.4252         estimate D2E/DX2                !
 ! R8    R(3,42)                 1.1047         estimate D2E/DX2                !
 ! R9    R(4,5)                  1.5288         estimate D2E/DX2                !
 ! R10   R(4,10)                 1.4454         estimate D2E/DX2                !
 ! R11   R(4,43)                 1.1046         estimate D2E/DX2                !
 ! R12   R(5,6)                  1.5419         estimate D2E/DX2                !
 ! R13   R(5,9)                  1.429          estimate D2E/DX2                !
 ! R14   R(5,44)                 1.1071         estimate D2E/DX2                !
 ! R15   R(6,7)                  1.5335         estimate D2E/DX2                !
 ! R16   R(6,45)                 1.1074         estimate D2E/DX2                !
 ! R17   R(7,8)                  1.4388         estimate D2E/DX2                !
 ! R18   R(7,46)                 1.099          estimate D2E/DX2                !
 ! R19   R(7,47)                 1.1011         estimate D2E/DX2                !
 ! R20   R(8,48)                 0.9825         estimate D2E/DX2                !
 ! R21   R(9,49)                 0.9917         estimate D2E/DX2                !
 ! R22   R(10,50)                0.9758         estimate D2E/DX2                !
 ! R23   R(10,80)                1.8926         estimate D2E/DX2                !
 ! R24   R(11,51)                0.9754         estimate D2E/DX2                !
 ! R25   R(12,13)                1.4465         estimate D2E/DX2                !
 ! R26   R(13,14)                1.5267         estimate D2E/DX2                !
 ! R27   R(13,19)                1.5425         estimate D2E/DX2                !
 ! R28   R(13,52)                1.1017         estimate D2E/DX2                !
 ! R29   R(14,15)                1.4239         estimate D2E/DX2                !
 ! R30   R(14,16)                1.5287         estimate D2E/DX2                !
 ! R31   R(14,53)                1.1079         estimate D2E/DX2                !
 ! R32   R(15,54)                0.9764         estimate D2E/DX2                !
 ! R33   R(16,17)                1.5457         estimate D2E/DX2                !
 ! R34   R(16,40)                1.4197         estimate D2E/DX2                !
 ! R35   R(16,55)                1.1003         estimate D2E/DX2                !
 ! R36   R(17,18)                1.4376         estimate D2E/DX2                !
 ! R37   R(17,22)                1.4092         estimate D2E/DX2                !
 ! R38   R(17,56)                1.1053         estimate D2E/DX2                !
 ! R39   R(18,19)                1.427          estimate D2E/DX2                !
 ! R40   R(19,20)                1.5319         estimate D2E/DX2                !
 ! R41   R(19,57)                1.1111         estimate D2E/DX2                !
 ! R42   R(20,21)                1.4394         estimate D2E/DX2                !
 ! R43   R(20,58)                1.098          estimate D2E/DX2                !
 ! R44   R(20,59)                1.1038         estimate D2E/DX2                !
 ! R45   R(21,60)                0.9926         estimate D2E/DX2                !
 ! R46   R(22,23)                1.4419         estimate D2E/DX2                !
 ! R47   R(23,24)                1.5306         estimate D2E/DX2                !
 ! R48   R(23,28)                1.5467         estimate D2E/DX2                !
 ! R49   R(23,61)                1.1011         estimate D2E/DX2                !
 ! R50   R(24,25)                1.5255         estimate D2E/DX2                !
 ! R51   R(24,39)                1.4373         estimate D2E/DX2                !
 ! R52   R(24,62)                1.1072         estimate D2E/DX2                !
 ! R53   R(25,26)                1.5276         estimate D2E/DX2                !
 ! R54   R(25,38)                1.4258         estimate D2E/DX2                !
 ! R55   R(25,63)                1.1081         estimate D2E/DX2                !
 ! R56   R(26,27)                1.4336         estimate D2E/DX2                !
 ! R57   R(26,31)                1.3936         estimate D2E/DX2                !
 ! R58   R(26,64)                1.1107         estimate D2E/DX2                !
 ! R59   R(27,28)                1.4388         estimate D2E/DX2                !
 ! R60   R(28,29)                1.5232         estimate D2E/DX2                !
 ! R61   R(28,65)                1.1084         estimate D2E/DX2                !
 ! R62   R(29,30)                1.4373         estimate D2E/DX2                !
 ! R63   R(29,66)                1.1025         estimate D2E/DX2                !
 ! R64   R(29,67)                1.0969         estimate D2E/DX2                !
 ! R65   R(30,68)                0.9907         estimate D2E/DX2                !
 ! R66   R(30,81)                1.7798         estimate D2E/DX2                !
 ! R67   R(31,32)                1.4563         estimate D2E/DX2                !
 ! R68   R(32,33)                1.5266         estimate D2E/DX2                !
 ! R69   R(32,69)                1.1022         estimate D2E/DX2                !
 ! R70   R(32,70)                1.102          estimate D2E/DX2                !
 ! R71   R(33,34)                1.542          estimate D2E/DX2                !
 ! R72   R(33,71)                1.1007         estimate D2E/DX2                !
 ! R73   R(33,72)                1.1023         estimate D2E/DX2                !
 ! R74   R(34,35)                1.5385         estimate D2E/DX2                !
 ! R75   R(34,73)                1.1016         estimate D2E/DX2                !
 ! R76   R(34,74)                1.1025         estimate D2E/DX2                !
 ! R77   R(35,36)                1.5235         estimate D2E/DX2                !
 ! R78   R(35,75)                1.1003         estimate D2E/DX2                !
 ! R79   R(35,76)                1.1035         estimate D2E/DX2                !
 ! R80   R(36,37)                1.4992         estimate D2E/DX2                !
 ! R81   R(36,77)                1.0971         estimate D2E/DX2                !
 ! R82   R(36,78)                1.0998         estimate D2E/DX2                !
 ! R83   R(37,79)                1.0286         estimate D2E/DX2                !
 ! R84   R(37,80)                1.0452         estimate D2E/DX2                !
 ! R85   R(37,81)                1.0574         estimate D2E/DX2                !
 ! R86   R(38,82)                0.9737         estimate D2E/DX2                !
 ! R87   R(39,83)                0.9762         estimate D2E/DX2                !
 ! R88   R(40,84)                0.9816         estimate D2E/DX2                !
 ! A1    A(2,1,6)              117.4487         estimate D2E/DX2                !
 ! A2    A(1,2,3)              112.8016         estimate D2E/DX2                !
 ! A3    A(1,2,12)             106.9179         estimate D2E/DX2                !
 ! A4    A(1,2,41)             108.7861         estimate D2E/DX2                !
 ! A5    A(3,2,12)             102.4975         estimate D2E/DX2                !
 ! A6    A(3,2,41)             112.6088         estimate D2E/DX2                !
 ! A7    A(12,2,41)            113.0455         estimate D2E/DX2                !
 ! A8    A(2,3,4)              114.7928         estimate D2E/DX2                !
 ! A9    A(2,3,11)             111.5168         estimate D2E/DX2                !
 ! A10   A(2,3,42)             104.5383         estimate D2E/DX2                !
 ! A11   A(4,3,11)             106.85           estimate D2E/DX2                !
 ! A12   A(4,3,42)             108.1702         estimate D2E/DX2                !
 ! A13   A(11,3,42)            110.9668         estimate D2E/DX2                !
 ! A14   A(3,4,5)              112.0518         estimate D2E/DX2                !
 ! A15   A(3,4,10)             109.0626         estimate D2E/DX2                !
 ! A16   A(3,4,43)             109.322          estimate D2E/DX2                !
 ! A17   A(5,4,10)             108.9116         estimate D2E/DX2                !
 ! A18   A(5,4,43)             108.3499         estimate D2E/DX2                !
 ! A19   A(10,4,43)            109.0981         estimate D2E/DX2                !
 ! A20   A(4,5,6)              108.8807         estimate D2E/DX2                !
 ! A21   A(4,5,9)              109.3046         estimate D2E/DX2                !
 ! A22   A(4,5,44)             108.1933         estimate D2E/DX2                !
 ! A23   A(6,5,9)              111.9403         estimate D2E/DX2                !
 ! A24   A(6,5,44)             108.0629         estimate D2E/DX2                !
 ! A25   A(9,5,44)             110.3708         estimate D2E/DX2                !
 ! A26   A(1,6,5)              111.0574         estimate D2E/DX2                !
 ! A27   A(1,6,7)              105.9332         estimate D2E/DX2                !
 ! A28   A(1,6,45)             109.5282         estimate D2E/DX2                !
 ! A29   A(5,6,7)              113.5431         estimate D2E/DX2                !
 ! A30   A(5,6,45)             109.0107         estimate D2E/DX2                !
 ! A31   A(7,6,45)             107.6425         estimate D2E/DX2                !
 ! A32   A(6,7,8)              113.5715         estimate D2E/DX2                !
 ! A33   A(6,7,46)             109.0334         estimate D2E/DX2                !
 ! A34   A(6,7,47)             109.0668         estimate D2E/DX2                !
 ! A35   A(8,7,46)             106.0812         estimate D2E/DX2                !
 ! A36   A(8,7,47)             110.8354         estimate D2E/DX2                !
 ! A37   A(46,7,47)            108.0695         estimate D2E/DX2                !
 ! A38   A(7,8,48)             109.4707         estimate D2E/DX2                !
 ! A39   A(5,9,49)             105.4388         estimate D2E/DX2                !
 ! A40   A(4,10,50)            106.1364         estimate D2E/DX2                !
 ! A41   A(4,10,80)            108.9369         estimate D2E/DX2                !
 ! A42   A(50,10,80)           114.0439         estimate D2E/DX2                !
 ! A43   A(3,11,51)            108.3271         estimate D2E/DX2                !
 ! A44   A(2,12,13)            121.4129         estimate D2E/DX2                !
 ! A45   A(12,13,14)           107.4851         estimate D2E/DX2                !
 ! A46   A(12,13,19)           107.7596         estimate D2E/DX2                !
 ! A47   A(12,13,52)           111.0871         estimate D2E/DX2                !
 ! A48   A(14,13,19)           108.0613         estimate D2E/DX2                !
 ! A49   A(14,13,52)           110.8364         estimate D2E/DX2                !
 ! A50   A(19,13,52)           111.4472         estimate D2E/DX2                !
 ! A51   A(13,14,15)           108.8108         estimate D2E/DX2                !
 ! A52   A(13,14,16)           108.4497         estimate D2E/DX2                !
 ! A53   A(13,14,53)           108.5259         estimate D2E/DX2                !
 ! A54   A(15,14,16)           110.7725         estimate D2E/DX2                !
 ! A55   A(15,14,53)           110.451          estimate D2E/DX2                !
 ! A56   A(16,14,53)           109.7706         estimate D2E/DX2                !
 ! A57   A(14,15,54)           105.9834         estimate D2E/DX2                !
 ! A58   A(14,16,17)           112.7282         estimate D2E/DX2                !
 ! A59   A(14,16,40)           108.3457         estimate D2E/DX2                !
 ! A60   A(14,16,55)           106.0411         estimate D2E/DX2                !
 ! A61   A(17,16,40)           110.9406         estimate D2E/DX2                !
 ! A62   A(17,16,55)           108.7805         estimate D2E/DX2                !
 ! A63   A(40,16,55)           109.8748         estimate D2E/DX2                !
 ! A64   A(16,17,18)           112.924          estimate D2E/DX2                !
 ! A65   A(16,17,22)           113.282          estimate D2E/DX2                !
 ! A66   A(16,17,56)           109.135          estimate D2E/DX2                !
 ! A67   A(18,17,22)           106.611          estimate D2E/DX2                !
 ! A68   A(18,17,56)           110.2311         estimate D2E/DX2                !
 ! A69   A(22,17,56)           104.294          estimate D2E/DX2                !
 ! A70   A(17,18,19)           116.484          estimate D2E/DX2                !
 ! A71   A(13,19,18)           110.1608         estimate D2E/DX2                !
 ! A72   A(13,19,20)           116.703          estimate D2E/DX2                !
 ! A73   A(13,19,57)           107.0063         estimate D2E/DX2                !
 ! A74   A(18,19,20)           106.5345         estimate D2E/DX2                !
 ! A75   A(18,19,57)           110.6619         estimate D2E/DX2                !
 ! A76   A(20,19,57)           105.6741         estimate D2E/DX2                !
 ! A77   A(19,20,21)           115.0974         estimate D2E/DX2                !
 ! A78   A(19,20,58)           108.2557         estimate D2E/DX2                !
 ! A79   A(19,20,59)           108.696          estimate D2E/DX2                !
 ! A80   A(21,20,58)           106.2165         estimate D2E/DX2                !
 ! A81   A(21,20,59)           110.2202         estimate D2E/DX2                !
 ! A82   A(58,20,59)           108.1147         estimate D2E/DX2                !
 ! A83   A(20,21,60)           105.6817         estimate D2E/DX2                !
 ! A84   A(17,22,23)           117.2883         estimate D2E/DX2                !
 ! A85   A(22,23,24)           108.1107         estimate D2E/DX2                !
 ! A86   A(22,23,28)           108.9447         estimate D2E/DX2                !
 ! A87   A(22,23,61)           111.2665         estimate D2E/DX2                !
 ! A88   A(24,23,28)           110.2235         estimate D2E/DX2                !
 ! A89   A(24,23,61)           110.5574         estimate D2E/DX2                !
 ! A90   A(28,23,61)           107.7318         estimate D2E/DX2                !
 ! A91   A(23,24,25)           111.7034         estimate D2E/DX2                !
 ! A92   A(23,24,39)           109.7184         estimate D2E/DX2                !
 ! A93   A(23,24,62)           107.9555         estimate D2E/DX2                !
 ! A94   A(25,24,39)           109.5927         estimate D2E/DX2                !
 ! A95   A(25,24,62)           108.654          estimate D2E/DX2                !
 ! A96   A(39,24,62)           109.1642         estimate D2E/DX2                !
 ! A97   A(24,25,26)           110.1913         estimate D2E/DX2                !
 ! A98   A(24,25,38)           106.2311         estimate D2E/DX2                !
 ! A99   A(24,25,63)           109.2264         estimate D2E/DX2                !
 ! A100  A(26,25,38)           112.7065         estimate D2E/DX2                !
 ! A101  A(26,25,63)           107.4174         estimate D2E/DX2                !
 ! A102  A(38,25,63)           111.0516         estimate D2E/DX2                !
 ! A103  A(25,26,27)           108.9217         estimate D2E/DX2                !
 ! A104  A(25,26,31)           107.9518         estimate D2E/DX2                !
 ! A105  A(25,26,64)           110.7518         estimate D2E/DX2                !
 ! A106  A(27,26,31)           107.5849         estimate D2E/DX2                !
 ! A107  A(27,26,64)           109.9432         estimate D2E/DX2                !
 ! A108  A(31,26,64)           111.586          estimate D2E/DX2                !
 ! A109  A(26,27,28)           114.4192         estimate D2E/DX2                !
 ! A110  A(23,28,27)           110.5233         estimate D2E/DX2                !
 ! A111  A(23,28,29)           114.1676         estimate D2E/DX2                !
 ! A112  A(23,28,65)           108.5276         estimate D2E/DX2                !
 ! A113  A(27,28,29)           105.1985         estimate D2E/DX2                !
 ! A114  A(27,28,65)           110.3609         estimate D2E/DX2                !
 ! A115  A(29,28,65)           107.9992         estimate D2E/DX2                !
 ! A116  A(28,29,30)           111.0508         estimate D2E/DX2                !
 ! A117  A(28,29,66)           108.0012         estimate D2E/DX2                !
 ! A118  A(28,29,67)           109.3522         estimate D2E/DX2                !
 ! A119  A(30,29,66)           109.141          estimate D2E/DX2                !
 ! A120  A(30,29,67)           110.2097         estimate D2E/DX2                !
 ! A121  A(66,29,67)           109.0338         estimate D2E/DX2                !
 ! A122  A(29,30,68)           108.1333         estimate D2E/DX2                !
 ! A123  A(29,30,81)           125.3654         estimate D2E/DX2                !
 ! A124  A(68,30,81)           126.2297         estimate D2E/DX2                !
 ! A125  A(26,31,32)           115.6682         estimate D2E/DX2                !
 ! A126  A(31,32,33)           108.8671         estimate D2E/DX2                !
 ! A127  A(31,32,69)           109.6312         estimate D2E/DX2                !
 ! A128  A(31,32,70)           107.6653         estimate D2E/DX2                !
 ! A129  A(33,32,69)           111.4793         estimate D2E/DX2                !
 ! A130  A(33,32,70)           110.7759         estimate D2E/DX2                !
 ! A131  A(69,32,70)           108.3424         estimate D2E/DX2                !
 ! A132  A(32,33,34)           116.5874         estimate D2E/DX2                !
 ! A133  A(32,33,71)           108.1501         estimate D2E/DX2                !
 ! A134  A(32,33,72)           107.4596         estimate D2E/DX2                !
 ! A135  A(34,33,71)           107.3857         estimate D2E/DX2                !
 ! A136  A(34,33,72)           111.3415         estimate D2E/DX2                !
 ! A137  A(71,33,72)           105.3038         estimate D2E/DX2                !
 ! A138  A(33,34,35)           117.9901         estimate D2E/DX2                !
 ! A139  A(33,34,73)           108.4423         estimate D2E/DX2                !
 ! A140  A(33,34,74)           108.0012         estimate D2E/DX2                !
 ! A141  A(35,34,73)           106.9356         estimate D2E/DX2                !
 ! A142  A(35,34,74)           109.3063         estimate D2E/DX2                !
 ! A143  A(73,34,74)           105.4748         estimate D2E/DX2                !
 ! A144  A(34,35,36)           114.1668         estimate D2E/DX2                !
 ! A145  A(34,35,75)           110.2466         estimate D2E/DX2                !
 ! A146  A(34,35,76)           107.7087         estimate D2E/DX2                !
 ! A147  A(36,35,75)           108.2288         estimate D2E/DX2                !
 ! A148  A(36,35,76)           109.3555         estimate D2E/DX2                !
 ! A149  A(75,35,76)           106.8916         estimate D2E/DX2                !
 ! A150  A(35,36,37)           111.2579         estimate D2E/DX2                !
 ! A151  A(35,36,77)           110.7874         estimate D2E/DX2                !
 ! A152  A(35,36,78)           111.9294         estimate D2E/DX2                !
 ! A153  A(37,36,77)           106.6949         estimate D2E/DX2                !
 ! A154  A(37,36,78)           107.1234         estimate D2E/DX2                !
 ! A155  A(77,36,78)           108.8318         estimate D2E/DX2                !
 ! A156  A(36,37,79)           112.5903         estimate D2E/DX2                !
 ! A157  A(36,37,80)           111.8842         estimate D2E/DX2                !
 ! A158  A(36,37,81)           113.7958         estimate D2E/DX2                !
 ! A159  A(79,37,80)           103.6165         estimate D2E/DX2                !
 ! A160  A(79,37,81)           105.3372         estimate D2E/DX2                !
 ! A161  A(80,37,81)           108.9299         estimate D2E/DX2                !
 ! A162  A(25,38,82)           107.8948         estimate D2E/DX2                !
 ! A163  A(24,39,83)           105.8237         estimate D2E/DX2                !
 ! A164  A(16,40,84)           105.1771         estimate D2E/DX2                !
 ! A165  L(10,80,37,1,-1)      179.3256         estimate D2E/DX2                !
 ! A166  L(30,81,37,2,-1)      174.379          estimate D2E/DX2                !
 ! A167  L(10,80,37,1,-2)      167.9126         estimate D2E/DX2                !
 ! A168  L(30,81,37,2,-2)      193.4412         estimate D2E/DX2                !
 ! D1    D(6,1,2,3)            -45.5511         estimate D2E/DX2                !
 ! D2    D(6,1,2,12)          -157.4661         estimate D2E/DX2                !
 ! D3    D(6,1,2,41)            80.1454         estimate D2E/DX2                !
 ! D4    D(2,1,6,5)             55.5418         estimate D2E/DX2                !
 ! D5    D(2,1,6,7)            179.255          estimate D2E/DX2                !
 ! D6    D(2,1,6,45)           -64.9166         estimate D2E/DX2                !
 ! D7    D(1,2,3,4)             40.0218         estimate D2E/DX2                !
 ! D8    D(1,2,3,11)           161.7118         estimate D2E/DX2                !
 ! D9    D(1,2,3,42)           -78.3149         estimate D2E/DX2                !
 ! D10   D(12,2,3,4)           154.6363         estimate D2E/DX2                !
 ! D11   D(12,2,3,11)          -83.6737         estimate D2E/DX2                !
 ! D12   D(12,2,3,42)           36.2996         estimate D2E/DX2                !
 ! D13   D(41,2,3,4)           -83.5847         estimate D2E/DX2                !
 ! D14   D(41,2,3,11)           38.1054         estimate D2E/DX2                !
 ! D15   D(41,2,3,42)          158.0786         estimate D2E/DX2                !
 ! D16   D(1,2,12,13)          -70.8377         estimate D2E/DX2                !
 ! D17   D(3,2,12,13)          170.3252         estimate D2E/DX2                !
 ! D18   D(41,2,12,13)          48.8447         estimate D2E/DX2                !
 ! D19   D(2,3,4,5)            -46.3516         estimate D2E/DX2                !
 ! D20   D(2,3,4,10)          -167.0124         estimate D2E/DX2                !
 ! D21   D(2,3,4,43)            73.779          estimate D2E/DX2                !
 ! D22   D(11,3,4,5)          -170.5483         estimate D2E/DX2                !
 ! D23   D(11,3,4,10)           68.7909         estimate D2E/DX2                !
 ! D24   D(11,3,4,43)          -50.4176         estimate D2E/DX2                !
 ! D25   D(42,3,4,5)            69.9201         estimate D2E/DX2                !
 ! D26   D(42,3,4,10)          -50.7407         estimate D2E/DX2                !
 ! D27   D(42,3,4,43)         -169.9493         estimate D2E/DX2                !
 ! D28   D(2,3,11,51)           53.0229         estimate D2E/DX2                !
 ! D29   D(4,3,11,51)          179.2067         estimate D2E/DX2                !
 ! D30   D(42,3,11,51)         -63.0836         estimate D2E/DX2                !
 ! D31   D(3,4,5,6)             54.0433         estimate D2E/DX2                !
 ! D32   D(3,4,5,9)            -68.5186         estimate D2E/DX2                !
 ! D33   D(3,4,5,44)           171.2587         estimate D2E/DX2                !
 ! D34   D(10,4,5,6)           174.7916         estimate D2E/DX2                !
 ! D35   D(10,4,5,9)            52.2296         estimate D2E/DX2                !
 ! D36   D(10,4,5,44)          -67.9931         estimate D2E/DX2                !
 ! D37   D(43,4,5,6)           -66.6522         estimate D2E/DX2                !
 ! D38   D(43,4,5,9)           170.7858         estimate D2E/DX2                !
 ! D39   D(43,4,5,44)           50.5631         estimate D2E/DX2                !
 ! D40   D(3,4,10,50)          -65.7703         estimate D2E/DX2                !
 ! D41   D(3,4,10,80)           57.4378         estimate D2E/DX2                !
 ! D42   D(5,4,10,50)          171.6631         estimate D2E/DX2                !
 ! D43   D(5,4,10,80)          -65.1288         estimate D2E/DX2                !
 ! D44   D(43,4,10,50)          53.5775         estimate D2E/DX2                !
 ! D45   D(43,4,10,80)         176.7856         estimate D2E/DX2                !
 ! D46   D(4,5,6,1)            -57.853          estimate D2E/DX2                !
 ! D47   D(4,5,6,7)           -177.1031         estimate D2E/DX2                !
 ! D48   D(4,5,6,45)            62.9111         estimate D2E/DX2                !
 ! D49   D(9,5,6,1)             63.1066         estimate D2E/DX2                !
 ! D50   D(9,5,6,7)            -56.1435         estimate D2E/DX2                !
 ! D51   D(9,5,6,45)          -176.1293         estimate D2E/DX2                !
 ! D52   D(44,5,6,1)          -175.1512         estimate D2E/DX2                !
 ! D53   D(44,5,6,7)            65.5987         estimate D2E/DX2                !
 ! D54   D(44,5,6,45)          -54.3871         estimate D2E/DX2                !
 ! D55   D(4,5,9,49)           158.1946         estimate D2E/DX2                !
 ! D56   D(6,5,9,49)            37.4808         estimate D2E/DX2                !
 ! D57   D(44,5,9,49)          -82.9264         estimate D2E/DX2                !
 ! D58   D(1,6,7,8)            -68.7242         estimate D2E/DX2                !
 ! D59   D(1,6,7,46)           173.2279         estimate D2E/DX2                !
 ! D60   D(1,6,7,47)            55.4277         estimate D2E/DX2                !
 ! D61   D(5,6,7,8)             53.4146         estimate D2E/DX2                !
 ! D62   D(5,6,7,46)           -64.6332         estimate D2E/DX2                !
 ! D63   D(5,6,7,47)           177.5665         estimate D2E/DX2                !
 ! D64   D(45,6,7,8)           174.1737         estimate D2E/DX2                !
 ! D65   D(45,6,7,46)           56.1259         estimate D2E/DX2                !
 ! D66   D(45,6,7,47)          -61.6744         estimate D2E/DX2                !
 ! D67   D(6,7,8,48)            75.3284         estimate D2E/DX2                !
 ! D68   D(46,7,8,48)         -164.9311         estimate D2E/DX2                !
 ! D69   D(47,7,8,48)          -47.8597         estimate D2E/DX2                !
 ! D70   D(4,10,37,36)        -164.1123         estimate D2E/DX2                !
 ! D71   D(4,10,37,79)          77.5311         estimate D2E/DX2                !
 ! D72   D(4,10,37,81)         -32.1667         estimate D2E/DX2                !
 ! D73   D(50,10,37,36)        -43.4455         estimate D2E/DX2                !
 ! D74   D(50,10,37,79)       -161.8022         estimate D2E/DX2                !
 ! D75   D(50,10,37,81)         88.5            estimate D2E/DX2                !
 ! D76   D(2,12,13,14)        -118.5322         estimate D2E/DX2                !
 ! D77   D(2,12,13,19)         125.2226         estimate D2E/DX2                !
 ! D78   D(2,12,13,52)           2.8786         estimate D2E/DX2                !
 ! D79   D(12,13,14,15)         64.9949         estimate D2E/DX2                !
 ! D80   D(12,13,14,16)        -55.5767         estimate D2E/DX2                !
 ! D81   D(12,13,14,53)       -174.7772         estimate D2E/DX2                !
 ! D82   D(19,13,14,15)       -178.9586         estimate D2E/DX2                !
 ! D83   D(19,13,14,16)         60.4698         estimate D2E/DX2                !
 ! D84   D(19,13,14,53)        -58.7306         estimate D2E/DX2                !
 ! D85   D(52,13,14,15)        -56.5727         estimate D2E/DX2                !
 ! D86   D(52,13,14,16)       -177.1443         estimate D2E/DX2                !
 ! D87   D(52,13,14,53)         63.6553         estimate D2E/DX2                !
 ! D88   D(12,13,19,18)         53.783          estimate D2E/DX2                !
 ! D89   D(12,13,19,20)        -67.8209         estimate D2E/DX2                !
 ! D90   D(12,13,19,57)        174.1386         estimate D2E/DX2                !
 ! D91   D(14,13,19,18)        -62.0845         estimate D2E/DX2                !
 ! D92   D(14,13,19,20)        176.3116         estimate D2E/DX2                !
 ! D93   D(14,13,19,57)         58.2711         estimate D2E/DX2                !
 ! D94   D(52,13,19,18)        175.9048         estimate D2E/DX2                !
 ! D95   D(52,13,19,20)         54.3009         estimate D2E/DX2                !
 ! D96   D(52,13,19,57)        -63.7397         estimate D2E/DX2                !
 ! D97   D(13,14,15,54)       -171.1007         estimate D2E/DX2                !
 ! D98   D(16,14,15,54)        -51.9714         estimate D2E/DX2                !
 ! D99   D(53,14,15,54)         69.8692         estimate D2E/DX2                !
 ! D100  D(13,14,16,17)        -52.7721         estimate D2E/DX2                !
 ! D101  D(13,14,16,40)       -175.9432         estimate D2E/DX2                !
 ! D102  D(13,14,16,55)         66.1506         estimate D2E/DX2                !
 ! D103  D(15,14,16,17)       -172.1189         estimate D2E/DX2                !
 ! D104  D(15,14,16,40)         64.71           estimate D2E/DX2                !
 ! D105  D(15,14,16,55)        -53.1962         estimate D2E/DX2                !
 ! D106  D(53,14,16,17)         65.6425         estimate D2E/DX2                !
 ! D107  D(53,14,16,40)        -57.5287         estimate D2E/DX2                !
 ! D108  D(53,14,16,55)       -175.4348         estimate D2E/DX2                !
 ! D109  D(14,16,17,18)         44.96           estimate D2E/DX2                !
 ! D110  D(14,16,17,22)        166.284          estimate D2E/DX2                !
 ! D111  D(14,16,17,56)        -78.0069         estimate D2E/DX2                !
 ! D112  D(40,16,17,18)        166.6739         estimate D2E/DX2                !
 ! D113  D(40,16,17,22)        -72.0021         estimate D2E/DX2                !
 ! D114  D(40,16,17,56)         43.707          estimate D2E/DX2                !
 ! D115  D(55,16,17,18)        -72.355          estimate D2E/DX2                !
 ! D116  D(55,16,17,22)         48.9691         estimate D2E/DX2                !
 ! D117  D(55,16,17,56)        164.6782         estimate D2E/DX2                !
 ! D118  D(14,16,40,84)       -154.5182         estimate D2E/DX2                !
 ! D119  D(17,16,40,84)         81.237          estimate D2E/DX2                !
 ! D120  D(55,16,40,84)        -39.0864         estimate D2E/DX2                !
 ! D121  D(16,17,18,19)        -47.2604         estimate D2E/DX2                !
 ! D122  D(22,17,18,19)       -172.2903         estimate D2E/DX2                !
 ! D123  D(56,17,18,19)         75.0948         estimate D2E/DX2                !
 ! D124  D(16,17,22,23)        -55.8247         estimate D2E/DX2                !
 ! D125  D(18,17,22,23)         68.9864         estimate D2E/DX2                !
 ! D126  D(56,17,22,23)       -174.3722         estimate D2E/DX2                !
 ! D127  D(17,18,19,13)         56.2185         estimate D2E/DX2                !
 ! D128  D(17,18,19,20)       -176.3118         estimate D2E/DX2                !
 ! D129  D(17,18,19,57)        -61.9094         estimate D2E/DX2                !
 ! D130  D(13,19,20,21)         65.2523         estimate D2E/DX2                !
 ! D131  D(13,19,20,58)       -176.1128         estimate D2E/DX2                !
 ! D132  D(13,19,20,59)        -58.9021         estimate D2E/DX2                !
 ! D133  D(18,19,20,21)        -58.2365         estimate D2E/DX2                !
 ! D134  D(18,19,20,58)         60.3984         estimate D2E/DX2                !
 ! D135  D(18,19,20,59)        177.6091         estimate D2E/DX2                !
 ! D136  D(57,19,20,21)       -175.9849         estimate D2E/DX2                !
 ! D137  D(57,19,20,58)        -57.35           estimate D2E/DX2                !
 ! D138  D(57,19,20,59)         59.8607         estimate D2E/DX2                !
 ! D139  D(19,20,21,60)        -63.3375         estimate D2E/DX2                !
 ! D140  D(58,20,21,60)        176.8956         estimate D2E/DX2                !
 ! D141  D(59,20,21,60)         60.011          estimate D2E/DX2                !
 ! D142  D(17,22,23,24)        119.6476         estimate D2E/DX2                !
 ! D143  D(17,22,23,28)       -120.5644         estimate D2E/DX2                !
 ! D144  D(17,22,23,61)         -1.9358         estimate D2E/DX2                !
 ! D145  D(22,23,24,25)        169.487          estimate D2E/DX2                !
 ! D146  D(22,23,24,39)        -68.7739         estimate D2E/DX2                !
 ! D147  D(22,23,24,62)         50.0897         estimate D2E/DX2                !
 ! D148  D(28,23,24,25)         50.507          estimate D2E/DX2                !
 ! D149  D(28,23,24,39)        172.2461         estimate D2E/DX2                !
 ! D150  D(28,23,24,62)        -68.8903         estimate D2E/DX2                !
 ! D151  D(61,23,24,25)        -68.4926         estimate D2E/DX2                !
 ! D152  D(61,23,24,39)         53.2465         estimate D2E/DX2                !
 ! D153  D(61,23,24,62)        172.1101         estimate D2E/DX2                !
 ! D154  D(22,23,28,27)       -170.2772         estimate D2E/DX2                !
 ! D155  D(22,23,28,29)         71.3759         estimate D2E/DX2                !
 ! D156  D(22,23,28,65)        -49.1275         estimate D2E/DX2                !
 ! D157  D(24,23,28,27)        -51.8071         estimate D2E/DX2                !
 ! D158  D(24,23,28,29)       -170.154          estimate D2E/DX2                !
 ! D159  D(24,23,28,65)         69.3426         estimate D2E/DX2                !
 ! D160  D(61,23,28,27)         68.9017         estimate D2E/DX2                !
 ! D161  D(61,23,28,29)        -49.4452         estimate D2E/DX2                !
 ! D162  D(61,23,28,65)       -169.9486         estimate D2E/DX2                !
 ! D163  D(23,24,25,26)        -53.7063         estimate D2E/DX2                !
 ! D164  D(23,24,25,38)       -176.0787         estimate D2E/DX2                !
 ! D165  D(23,24,25,63)         64.0703         estimate D2E/DX2                !
 ! D166  D(39,24,25,26)       -175.5179         estimate D2E/DX2                !
 ! D167  D(39,24,25,38)         62.1097         estimate D2E/DX2                !
 ! D168  D(39,24,25,63)        -57.7413         estimate D2E/DX2                !
 ! D169  D(62,24,25,26)         65.2773         estimate D2E/DX2                !
 ! D170  D(62,24,25,38)        -57.095          estimate D2E/DX2                !
 ! D171  D(62,24,25,63)       -176.946          estimate D2E/DX2                !
 ! D172  D(23,24,39,83)       -173.748          estimate D2E/DX2                !
 ! D173  D(25,24,39,83)        -50.7539         estimate D2E/DX2                !
 ! D174  D(62,24,39,83)         68.1362         estimate D2E/DX2                !
 ! D175  D(24,25,26,27)         57.4138         estimate D2E/DX2                !
 ! D176  D(24,25,26,31)        173.9514         estimate D2E/DX2                !
 ! D177  D(24,25,26,64)        -63.6155         estimate D2E/DX2                !
 ! D178  D(38,25,26,27)        175.8853         estimate D2E/DX2                !
 ! D179  D(38,25,26,31)        -67.5771         estimate D2E/DX2                !
 ! D180  D(38,25,26,64)         54.8559         estimate D2E/DX2                !
 ! D181  D(63,25,26,27)        -61.4739         estimate D2E/DX2                !
 ! D182  D(63,25,26,31)         55.0637         estimate D2E/DX2                !
 ! D183  D(63,25,26,64)        177.4968         estimate D2E/DX2                !
 ! D184  D(24,25,38,82)       -175.7372         estimate D2E/DX2                !
 ! D185  D(26,25,38,82)         63.4989         estimate D2E/DX2                !
 ! D186  D(63,25,38,82)        -57.0813         estimate D2E/DX2                !
 ! D187  D(25,26,27,28)        -62.2748         estimate D2E/DX2                !
 ! D188  D(31,26,27,28)       -179.0466         estimate D2E/DX2                !
 ! D189  D(64,26,27,28)         59.2481         estimate D2E/DX2                !
 ! D190  D(25,26,31,32)        157.5801         estimate D2E/DX2                !
 ! D191  D(27,26,31,32)        -85.016          estimate D2E/DX2                !
 ! D192  D(64,26,31,32)         35.6604         estimate D2E/DX2                !
 ! D193  D(26,27,28,23)         59.7626         estimate D2E/DX2                !
 ! D194  D(26,27,28,29)       -176.5477         estimate D2E/DX2                !
 ! D195  D(26,27,28,65)        -60.2928         estimate D2E/DX2                !
 ! D196  D(23,28,29,30)         63.1759         estimate D2E/DX2                !
 ! D197  D(23,28,29,66)       -177.1881         estimate D2E/DX2                !
 ! D198  D(23,28,29,67)        -58.6612         estimate D2E/DX2                !
 ! D199  D(27,28,29,30)        -58.1633         estimate D2E/DX2                !
 ! D200  D(27,28,29,66)         61.4727         estimate D2E/DX2                !
 ! D201  D(27,28,29,67)        179.9997         estimate D2E/DX2                !
 ! D202  D(65,28,29,30)       -176.0265         estimate D2E/DX2                !
 ! D203  D(65,28,29,66)        -56.3904         estimate D2E/DX2                !
 ! D204  D(65,28,29,67)         62.1365         estimate D2E/DX2                !
 ! D205  D(28,29,30,68)       -128.0279         estimate D2E/DX2                !
 ! D206  D(28,29,30,81)         57.6612         estimate D2E/DX2                !
 ! D207  D(66,29,30,68)        113.0186         estimate D2E/DX2                !
 ! D208  D(66,29,30,81)        -61.2922         estimate D2E/DX2                !
 ! D209  D(67,29,30,68)         -6.6924         estimate D2E/DX2                !
 ! D210  D(67,29,30,81)        178.9967         estimate D2E/DX2                !
 ! D211  D(29,30,37,36)         -7.9197         estimate D2E/DX2                !
 ! D212  D(29,30,37,79)        114.5142         estimate D2E/DX2                !
 ! D213  D(29,30,37,80)       -138.5604         estimate D2E/DX2                !
 ! D214  D(68,30,37,36)       -177.2122         estimate D2E/DX2                !
 ! D215  D(68,30,37,79)        -54.7783         estimate D2E/DX2                !
 ! D216  D(68,30,37,80)         52.1471         estimate D2E/DX2                !
 ! D217  D(26,31,32,33)        148.1987         estimate D2E/DX2                !
 ! D218  D(26,31,32,69)         26.0085         estimate D2E/DX2                !
 ! D219  D(26,31,32,70)        -91.6531         estimate D2E/DX2                !
 ! D220  D(31,32,33,34)        -91.4885         estimate D2E/DX2                !
 ! D221  D(31,32,33,71)        147.4672         estimate D2E/DX2                !
 ! D222  D(31,32,33,72)         34.2461         estimate D2E/DX2                !
 ! D223  D(69,32,33,34)         29.5764         estimate D2E/DX2                !
 ! D224  D(69,32,33,71)        -91.468          estimate D2E/DX2                !
 ! D225  D(69,32,33,72)        155.311          estimate D2E/DX2                !
 ! D226  D(70,32,33,34)        150.3059         estimate D2E/DX2                !
 ! D227  D(70,32,33,71)         29.2616         estimate D2E/DX2                !
 ! D228  D(70,32,33,72)        -83.9595         estimate D2E/DX2                !
 ! D229  D(32,33,34,35)         50.0836         estimate D2E/DX2                !
 ! D230  D(32,33,34,73)        -71.5832         estimate D2E/DX2                !
 ! D231  D(32,33,34,74)        174.5823         estimate D2E/DX2                !
 ! D232  D(71,33,34,35)        171.5317         estimate D2E/DX2                !
 ! D233  D(71,33,34,73)         49.8648         estimate D2E/DX2                !
 ! D234  D(71,33,34,74)        -63.9696         estimate D2E/DX2                !
 ! D235  D(72,33,34,35)        -73.6798         estimate D2E/DX2                !
 ! D236  D(72,33,34,73)        164.6534         estimate D2E/DX2                !
 ! D237  D(72,33,34,74)         50.8189         estimate D2E/DX2                !
 ! D238  D(33,34,35,36)         58.2465         estimate D2E/DX2                !
 ! D239  D(33,34,35,75)        -63.8233         estimate D2E/DX2                !
 ! D240  D(33,34,35,76)        179.8889         estimate D2E/DX2                !
 ! D241  D(73,34,35,36)       -179.3191         estimate D2E/DX2                !
 ! D242  D(73,34,35,75)         58.6111         estimate D2E/DX2                !
 ! D243  D(73,34,35,76)        -57.6767         estimate D2E/DX2                !
 ! D244  D(74,34,35,36)        -65.6032         estimate D2E/DX2                !
 ! D245  D(74,34,35,75)        172.3269         estimate D2E/DX2                !
 ! D246  D(74,34,35,76)         56.0392         estimate D2E/DX2                !
 ! D247  D(34,35,36,37)        176.8437         estimate D2E/DX2                !
 ! D248  D(34,35,36,77)        -64.6408         estimate D2E/DX2                !
 ! D249  D(34,35,36,78)         57.0292         estimate D2E/DX2                !
 ! D250  D(75,35,36,37)        -59.9862         estimate D2E/DX2                !
 ! D251  D(75,35,36,77)         58.5293         estimate D2E/DX2                !
 ! D252  D(75,35,36,78)       -179.8006         estimate D2E/DX2                !
 ! D253  D(76,35,36,37)         56.1134         estimate D2E/DX2                !
 ! D254  D(76,35,36,77)        174.6289         estimate D2E/DX2                !
 ! D255  D(76,35,36,78)        -63.7011         estimate D2E/DX2                !
 ! D256  D(35,36,37,79)        -61.5348         estimate D2E/DX2                !
 ! D257  D(35,36,37,80)       -177.7606         estimate D2E/DX2                !
 ! D258  D(35,36,37,81)         58.2381         estimate D2E/DX2                !
 ! D259  D(77,36,37,79)        177.5178         estimate D2E/DX2                !
 ! D260  D(77,36,37,80)         61.2921         estimate D2E/DX2                !
 ! D261  D(77,36,37,81)        -62.7092         estimate D2E/DX2                !
 ! D262  D(78,36,37,79)         61.0927         estimate D2E/DX2                !
 ! D263  D(78,36,37,80)        -55.133          estimate D2E/DX2                !
 ! D264  D(78,36,37,81)       -179.1343         estimate D2E/DX2                !
 --------------------------------------------------------------------------------
 Trust Radius=3.00D-01 FncErr=1.00D-07 GrdErr=1.00D-06
 Number of steps in this run=    504 maximum allowed number of steps=    504.
 GradGradGradGradGradGradGradGradGradGradGradGradGradGradGradGradGradGrad

 Leave Link  103 at Wed Mar 30 16:12:18 2016, MaxMem= 10737418240 cpu:         0.4
 (Enter /share/apps//g09/l202.exe)
 Stoichiometry    C23H44NO16(1+)
 Framework group  C1[X(C23H44NO16)]
 Deg. of freedom   246
 Full point group                 C1      NOp   1
 Largest Abelian subgroup         C1      NOp   1
 Largest concise Abelian subgroup C1      NOp   1
                         Standard orientation:                         
 ---------------------------------------------------------------------
 Center     Atomic      Atomic             Coordinates (Angstroms)
 Number     Number       Type             X           Y           Z
 ---------------------------------------------------------------------
      1          8           0        3.467756   -1.319924    0.257212
      2          6           0        2.843595   -0.414128    1.202649
      3          6           0        1.571856   -0.999203    1.837519
      4          6           0        1.657530   -2.478144    2.192915
      5          6           0        2.254006   -3.308082    1.055925
      6          6           0        3.613326   -2.700816    0.654867
      7          6           0        4.276375   -3.412642   -0.530641
      8          8           0        3.426220   -3.519045   -1.686520
      9          8           0        1.337398   -3.335718   -0.039967
     10          8           0        0.330769   -2.970750    2.486356
     11          8           0        1.217985   -0.307104    3.032052
     12          8           0        2.348093    0.657325    0.469417
     13          6           0        3.231709    1.629132   -0.136480
     14          6           0        2.914588    2.987343    0.484410
     15          8           0        3.244222    2.947415    1.869085
     16          6           0        1.425390    3.272502    0.289606
     17          6           0        0.978627    3.134441   -1.183675
     18          8           0        1.500958    1.955452   -1.819053
     19          6           0        2.893391    1.699797   -1.639778
     20          6           0        3.220477    0.459996   -2.478012
     21          8           0        2.465040   -0.718988   -2.144741
     22          8           0       -0.421270    3.089345   -1.339338
     23          6           0       -1.135341    2.072324   -0.607910
     24          6           0       -2.125386    2.767319    0.329866
     25          6           0       -3.101782    1.775703    0.954650
     26          6           0       -3.791282    0.956901   -0.135121
     27          8           0       -2.792367    0.288592   -0.916644
     28          6           0       -1.892048    1.170294   -1.610948
     29          6           0       -0.990557    0.256036   -2.430506
     30          8           0       -0.298695   -0.678840   -1.586088
     31          8           0       -4.563711   -0.022048    0.487051
     32          6           0       -5.660794   -0.558554   -0.306234
     33          6           0       -5.881079   -2.018953    0.079878
     34          6           0       -5.112525   -3.073506   -0.741713
     35          6           0       -3.599049   -2.875802   -0.934881
     36          6           0       -2.809362   -2.796962    0.365542
     37          7           0       -1.338065   -2.681024    0.101861
     38          8           0       -4.018654    2.550310    1.724234
     39          8           0       -1.408413    3.456532    1.367476
     40          8           0        1.151619    4.575311    0.782889
     41          1           0        3.595381   -0.112368    1.956624
     42          1           0        0.793347   -0.875422    1.063545
     43          1           0        2.295203   -2.603038    3.086221
     44          1           0        2.434003   -4.333076    1.433736
     45          1           0        4.306182   -2.766921    1.516239
     46          1           0        4.522559   -4.442903   -0.237949
     47          1           0        5.215399   -2.895207   -0.781428
     48          1           0        3.370237   -2.645810   -2.133391
     49          1           0        1.885581   -3.553249   -0.837208
     50          1           0        0.043248   -2.509374    3.296713
     51          1           0        1.169470    0.646174    2.831286
     52          1           0        4.287720    1.360639    0.026599
     53          1           0        3.515171    3.760398   -0.034351
     54          1           0        2.895381    3.774864    2.252471
     55          1           0        0.890962    2.523947    0.893452
     56          1           0        1.286303    4.037536   -1.741726
     57          1           0        3.501921    2.523112   -2.071473
     58          1           0        2.991161    0.684457   -3.528084
     59          1           0        4.302146    0.254928   -2.399217
     60          1           0        2.717118   -0.944241   -1.211451
     61          1           0       -0.445140    1.432636   -0.036212
     62          1           0       -2.700166    3.503144   -0.265192
     63          1           0       -2.541670    1.067683    1.597168
     64          1           0       -4.408132    1.610602   -0.787627
     65          1           0       -2.452639    1.818407   -2.314003
     66          1           0       -1.624378   -0.299352   -3.141387
     67          1           0       -0.270762    0.863819   -2.992323
     68          1           0        0.668424   -0.625084   -1.794157
     69          1           0       -5.427442   -0.455370   -1.378539
     70          1           0       -6.557509    0.043261   -0.086998
     71          1           0       -6.954220   -2.241999   -0.020440
     72          1           0       -5.663825   -2.112792    1.156439
     73          1           0       -5.560152   -3.126172   -1.746928
     74          1           0       -5.295964   -4.060505   -0.285930
     75          1           0       -3.405341   -1.958847   -1.511310
     76          1           0       -3.224782   -3.719634   -1.539438
     77          1           0       -3.097055   -1.909303    0.942579
     78          1           0       -2.956972   -3.689867    0.990511
     79          1           0       -0.961970   -3.494055   -0.403583
     80          1           0       -0.783646   -2.664011    0.987776
     81          1           0       -1.074502   -1.841116   -0.483925
     82          1           0       -4.612963    1.935192    2.189652
     83          1           0       -2.087769    3.790108    1.984038
     84          1           0        0.200968    4.563074    1.027252
 ---------------------------------------------------------------------
 Rotational constants (GHZ):      0.1102540      0.0815938      0.0601427
 Leave Link  202 at Wed Mar 30 16:12:19 2016, MaxMem= 10737418240 cpu:         3.3
 (Enter /share/apps//g09/l301.exe)
 Standard basis: 6-311+G(d,p) (5D, 7F)
 Ernie: Thresh=  0.10000D-02 Tol=  0.10000D-05 Strict=F.
 There are  1184 symmetry adapted cartesian basis functions of A   symmetry.
 There are  1144 symmetry adapted basis functions of A   symmetry.
  1144 basis functions,  1792 primitive gaussians,  1184 cartesian basis functions
   158 alpha electrons      158 beta electrons
       nuclear repulsion energy      5995.0418372925 Hartrees.
 IExCor= 1009 DFT=T Ex+Corr=PBE1PBE ExCW=0 ScaHFX=  0.250000
 ScaDFX=  0.750000  0.750000  1.000000  1.000000 ScalE2=  1.000000  1.000000
 IRadAn=      0 IRanWt=     -1 IRanGd=            0 ICorTp=0 IEmpDi=131
 NAtoms=   84 NActive=   84 NUniq=   84 SFac= 1.00D+00 NAtFMM=   60 NAOKFM=T Big=T
 Integral buffers will be    131072 words long.
 Raffenetti 2 integral format.
 Two-electron integral symmetry is turned on.
 R6Disp:  Grimme-D3 Dispersion energy=       -0.0864423575 Hartrees.
 Nuclear repulsion after empirical dispersion term =     5994.9553949350 Hartrees.
 Leave Link  301 at Wed Mar 30 16:12:19 2016, MaxMem= 10737418240 cpu:         1.8
 (Enter /share/apps//g09/l302.exe)
 NPDir=0 NMtPBC=     1 NCelOv=     1 NCel=       1 NClECP=     1 NCelD=      1
         NCelK=      1 NCelE2=     1 NClLst=     1 CellRange=     0.0.
 One-electron integrals computed using PRISM.
 NBasis=  1144 RedAO= T EigKep=  1.43D-06  NBF=  1144
 NBsUse=  1144 1.00D-06 EigRej= -1.00D+00 NBFU=  1144
 Precomputing XC quadrature grid using
 IXCGrd= 4 IRadAn=           0 IRanWt=          -1 IRanGd=           0 AccXCQ= 0.00D+00.
 Generated NRdTot=       0 NPtTot=           0 NUsed=           0 NTot=          32
 NSgBfM=  1120  1120  1120  1120  1120 MxSgAt=    84 MxSgA2=    84.
 Leave Link  302 at Wed Mar 30 16:12:23 2016, MaxMem= 10737418240 cpu:        53.5
 (Enter /share/apps//g09/l303.exe)
 DipDrv:  MaxL=1.
 Leave Link  303 at Wed Mar 30 16:12:25 2016, MaxMem= 10737418240 cpu:        34.8
 (Enter /share/apps//g09/l401.exe)
 ExpMin= 4.38D-02 ExpMax= 8.59D+03 ExpMxC= 1.30D+03 IAcc=2 IRadAn=         4 AccDes= 0.00D+00
 Harris functional with IExCor= 1009 and IRadAn=       4 diagonalized for initial guess.
 HarFok:  IExCor= 1009 AccDes= 0.00D+00 IRadAn=         4 IDoV= 1 UseB2=F ITyADJ=14
 ICtDFT=  3500011 ScaDFX=  1.000000  1.000000  1.000000  1.000000
 FoFCou: FMM=F IPFlag=           0 FMFlag=      100000 FMFlg1=        2001
         NFxFlg=           0 DoJE=T BraDBF=F KetDBF=T FulRan=T
         wScrn=  0.000000 ICntrl=     500 IOpCl=  0 I1Cent=   200000004 NGrid=           0
         NMat0=    1 NMatS0=      1 NMatT0=    0 NMatD0=    1 NMtDS0=    0 NMtDT0=    0
 Petite list used in FoFCou.
 Harris En= -2159.71814499656    
 JPrj=0 DoOrth=F DoCkMO=F.
 Leave Link  401 at Wed Mar 30 16:12:32 2016, MaxMem= 10737418240 cpu:       126.3
 (Enter /share/apps//g09/l502.exe)
 Closed shell SCF:
 Using DIIS extrapolation, IDIIS=  1040.
 Integral symmetry usage will be decided dynamically.
 IVT=     4256630 IEndB=     4256630 NGot= 10737418240 MDV= 10734581291
 LenX= 10734581291 LenY= 10733178251
 Requested convergence on RMS density matrix=1.00D-08 within 128 cycles.
 Requested convergence on MAX density matrix=1.00D-06.
 Requested convergence on             energy=1.00D-06.
 No special actions if energy rises.
 Fock matrices will be formed incrementally for  20 cycles.

 Cycle   1  Pass 1  IDiag  1:
 FoFJK:  IHMeth= 1 ICntrl=       0 DoSepK=F KAlg= 0 I1Cent=   0 FoldK=F
 IRaf= 790000000 NMat=   1 IRICut=       1 DoRegI=T DoRafI=F ISym2E= 0.
 FoFCou: FMM=T IPFlag=           0 FMFlag=      100000 FMFlg1=        2001
         NFxFlg=           0 DoJE=F BraDBF=F KetDBF=F FulRan=T
         wScrn=  0.000000 ICntrl=       0 IOpCl=  0 I1Cent=           0 NGrid=           0
         NMat0=    1 NMatS0=      1 NMatT0=    0 NMatD0=    1 NMtDS0=    0 NMtDT0=    0
 Symmetry not used in FoFCou.
 FMM levels:  10  Number of levels for PrismC:   9
 E= -2158.70593027658    
 DIIS: error= 1.15D-02 at cycle   1 NSaved=   1.
 NSaved= 1 IEnMin= 1 EnMin= -2158.70593027658     IErMin= 1 ErrMin= 1.15D-02
 ErrMax= 1.15D-02  0.00D+00 EMaxC= 1.00D-01 BMatC= 1.02D+00 BMatP= 1.02D+00
 IDIUse=3 WtCom= 8.85D-01 WtEn= 1.15D-01
 Coeff-Com:  0.100D+01
 Coeff-En:   0.100D+01
 Coeff:      0.100D+01
 Gap=     0.263 Goal=   None    Shift=    0.000
 GapD=    0.263 DampG=1.000 DampE=0.500 DampFc=0.5000 IDamp=-1.
 Damping current iteration by 5.00D-01
 RMSDP=1.05D-02 MaxDP=2.58D+00              OVMax= 1.35D-01

 Cycle   2  Pass 1  IDiag  1:
 RMSU=  5.27D-03    CP:  1.01D+00
 E= -2158.98508985615     Delta-E=       -0.279159579564 Rises=F Damp=T
 DIIS: error= 2.50D-03 at cycle   2 NSaved=   2.
 NSaved= 2 IEnMin= 2 EnMin= -2158.98508985615     IErMin= 2 ErrMin= 2.50D-03
 ErrMax= 2.50D-03  0.00D+00 EMaxC= 1.00D-01 BMatC= 8.21D-02 BMatP= 1.02D+00
 IDIUse=3 WtCom= 9.75D-01 WtEn= 2.50D-02
 Coeff-Com:  0.640D-01 0.936D+00
 Coeff-En:   0.165D+00 0.835D+00
 Coeff:      0.666D-01 0.933D+00
 Gap=     0.285 Goal=   None    Shift=    0.000
 RMSDP=4.44D-03 MaxDP=9.79D-01 DE=-2.79D-01 OVMax= 8.05D-02

 Cycle   3  Pass 1  IDiag  1:
 RMSU=  2.68D-03    CP:  9.24D-01  9.58D-01
 E= -2159.35525400151     Delta-E=       -0.370164145358 Rises=F Damp=F
 DIIS: error= 2.86D-03 at cycle   3 NSaved=   3.
 NSaved= 3 IEnMin= 3 EnMin= -2159.35525400151     IErMin= 2 ErrMin= 2.50D-03
 ErrMax= 2.86D-03  0.00D+00 EMaxC= 1.00D-01 BMatC= 4.56D-02 BMatP= 8.21D-02
 IDIUse=3 WtCom= 9.71D-01 WtEn= 2.86D-02
 Coeff-Com: -0.668D-01 0.409D+00 0.658D+00
 Coeff-En:   0.000D+00 0.000D+00 0.100D+01
 Coeff:     -0.648D-01 0.397D+00 0.668D+00
 Gap=     0.267 Goal=   None    Shift=    0.000
 RMSDP=1.47D-03 MaxDP=4.23D-01 DE=-3.70D-01 OVMax= 1.70D-02

 Cycle   4  Pass 1  IDiag  1:
 RMSU=  1.14D-03    CP:  9.41D-01  1.05D+00  9.00D-01
 E= -2159.38397593312     Delta-E=       -0.028721931615 Rises=F Damp=F
 DIIS: error= 9.61D-04 at cycle   4 NSaved=   4.
 NSaved= 4 IEnMin= 4 EnMin= -2159.38397593312     IErMin= 4 ErrMin= 9.61D-04
 ErrMax= 9.61D-04  0.00D+00 EMaxC= 1.00D-01 BMatC= 6.09D-03 BMatP= 4.56D-02
 IDIUse=3 WtCom= 9.90D-01 WtEn= 9.61D-03
 Coeff-Com: -0.368D-01 0.126D+00 0.343D+00 0.567D+00
 Coeff-En:   0.000D+00 0.000D+00 0.753D-01 0.925D+00
 Coeff:     -0.364D-01 0.125D+00 0.340D+00 0.571D+00
 Gap=     0.260 Goal=   None    Shift=    0.000
 RMSDP=1.19D-03 MaxDP=3.83D-01 DE=-2.87D-02 OVMax= 5.90D-03

 Cycle   5  Pass 1  IDiag  1:
 RMSU=  3.12D-04    CP:  9.18D-01  1.04D+00  8.84D-01  5.69D-01
 E= -2159.38914581058     Delta-E=       -0.005169877455 Rises=F Damp=F
 DIIS: error= 2.60D-04 at cycle   5 NSaved=   5.
 NSaved= 5 IEnMin= 5 EnMin= -2159.38914581058     IErMin= 5 ErrMin= 2.60D-04
 ErrMax= 2.60D-04  0.00D+00 EMaxC= 1.00D-01 BMatC= 2.82D-04 BMatP= 6.09D-03
 IDIUse=3 WtCom= 9.97D-01 WtEn= 2.60D-03
 Coeff-Com: -0.120D-01 0.280D-01 0.106D+00 0.252D+00 0.626D+00
 Coeff-En:   0.000D+00 0.000D+00 0.000D+00 0.000D+00 0.100D+01
 Coeff:     -0.120D-01 0.279D-01 0.105D+00 0.251D+00 0.627D+00
 Gap=     0.260 Goal=   None    Shift=    0.000
 RMSDP=1.51D-04 MaxDP=3.75D-02 DE=-5.17D-03 OVMax= 1.39D-03

 Cycle   6  Pass 1  IDiag  1:
 RMSU=  7.10D-05    CP:  9.20D-01  1.04D+00  8.96D-01  5.86D-01  7.71D-01
 E= -2159.38934136366     Delta-E=       -0.000195553088 Rises=F Damp=F
 DIIS: error= 8.87D-05 at cycle   6 NSaved=   6.
 NSaved= 6 IEnMin= 6 EnMin= -2159.38934136366     IErMin= 6 ErrMin= 8.87D-05
 ErrMax= 8.87D-05  0.00D+00 EMaxC= 1.00D-01 BMatC= 3.15D-05 BMatP= 2.82D-04
 IDIUse=1 WtCom= 1.00D+00 WtEn= 0.00D+00
 Coeff-Com: -0.437D-02 0.795D-02 0.373D-01 0.104D+00 0.338D+00 0.517D+00
 Coeff:     -0.437D-02 0.795D-02 0.373D-01 0.104D+00 0.338D+00 0.517D+00
 Gap=     0.260 Goal=   None    Shift=    0.000
 RMSDP=4.26D-05 MaxDP=1.44D-02 DE=-1.96D-04 OVMax= 4.87D-04

 Cycle   7  Pass 1  IDiag  1:
 RMSU=  1.87D-05    CP:  9.21D-01  1.04D+00  8.99D-01  5.98D-01  7.67D-01
                    CP:  7.45D-01
 E= -2159.38936281127     Delta-E=       -0.000021447609 Rises=F Damp=F
 DIIS: error= 2.73D-05 at cycle   7 NSaved=   7.
 NSaved= 7 IEnMin= 7 EnMin= -2159.38936281127     IErMin= 7 ErrMin= 2.73D-05
 ErrMax= 2.73D-05  0.00D+00 EMaxC= 1.00D-01 BMatC= 2.07D-06 BMatP= 3.15D-05
 IDIUse=1 WtCom= 1.00D+00 WtEn= 0.00D+00
 Coeff-Com: -0.117D-02 0.168D-02 0.102D-01 0.325D-01 0.120D+00 0.263D+00
 Coeff-Com:  0.574D+00
 Coeff:     -0.117D-02 0.168D-02 0.102D-01 0.325D-01 0.120D+00 0.263D+00
 Coeff:      0.574D+00
 Gap=     0.260 Goal=   None    Shift=    0.000
 RMSDP=1.26D-05 MaxDP=2.21D-03 DE=-2.14D-05 OVMax= 1.34D-04

 Cycle   8  Pass 1  IDiag  1:
 RMSU=  9.55D-06    CP:  9.21D-01  1.04D+00  8.98D-01  6.01D-01  7.75D-01
                    CP:  7.08D-01  6.65D-01
 E= -2159.38936424731     Delta-E=       -0.000001436037 Rises=F Damp=F
 DIIS: error= 6.00D-06 at cycle   8 NSaved=   8.
 NSaved= 8 IEnMin= 8 EnMin= -2159.38936424731     IErMin= 8 ErrMin= 6.00D-06
 ErrMax= 6.00D-06  0.00D+00 EMaxC= 1.00D-01 BMatC= 1.50D-07 BMatP= 2.07D-06
 IDIUse=1 WtCom= 1.00D+00 WtEn= 0.00D+00
 Coeff-Com: -0.186D-04-0.171D-03 0.316D-03 0.271D-02 0.138D-01 0.523D-01
 Coeff-Com:  0.252D+00 0.679D+00
 Coeff:     -0.186D-04-0.171D-03 0.316D-03 0.271D-02 0.138D-01 0.523D-01
 Coeff:      0.252D+00 0.679D+00
 Gap=     0.260 Goal=   None    Shift=    0.000
 RMSDP=3.71D-06 MaxDP=6.54D-04 DE=-1.44D-06 OVMax= 3.30D-05

 Cycle   9  Pass 1  IDiag  1:
 RMSU=  2.07D-06    CP:  9.21D-01  1.04D+00  8.99D-01  6.00D-01  7.77D-01
                    CP:  7.15D-01  7.41D-01  8.12D-01
 E= -2159.38936436140     Delta-E=       -0.000000114093 Rises=F Damp=F
 DIIS: error= 1.69D-06 at cycle   9 NSaved=   9.
 NSaved= 9 IEnMin= 9 EnMin= -2159.38936436140     IErMin= 9 ErrMin= 1.69D-06
 ErrMax= 1.69D-06  0.00D+00 EMaxC= 1.00D-01 BMatC= 1.69D-08 BMatP= 1.50D-07
 IDIUse=1 WtCom= 1.00D+00 WtEn= 0.00D+00
 Coeff-Com:  0.694D-04-0.195D-03-0.559D-03-0.902D-03-0.179D-02 0.663D-02
 Coeff-Com:  0.830D-01 0.335D+00 0.579D+00
 Coeff:      0.694D-04-0.195D-03-0.559D-03-0.902D-03-0.179D-02 0.663D-02
 Coeff:      0.830D-01 0.335D+00 0.579D+00
 Gap=     0.260 Goal=   None    Shift=    0.000
 RMSDP=8.62D-07 MaxDP=2.35D-04 DE=-1.14D-07 OVMax= 1.20D-05

 Cycle  10  Pass 1  IDiag  1:
 RMSU=  5.47D-07    CP:  9.21D-01  1.04D+00  8.99D-01  6.00D-01  7.77D-01
                    CP:  7.20D-01  7.41D-01  8.37D-01  8.33D-01
 E= -2159.38936437301     Delta-E=       -0.000000011612 Rises=F Damp=F
 DIIS: error= 6.01D-07 at cycle  10 NSaved=  10.
 NSaved=10 IEnMin=10 EnMin= -2159.38936437301     IErMin=10 ErrMin= 6.01D-07
 ErrMax= 6.01D-07  0.00D+00 EMaxC= 1.00D-01 BMatC= 1.71D-09 BMatP= 1.69D-08
 IDIUse=1 WtCom= 1.00D+00 WtEn= 0.00D+00
 Coeff-Com:  0.313D-04-0.717D-04-0.292D-03-0.641D-03-0.206D-02-0.156D-02
 Coeff-Com:  0.168D-01 0.101D+00 0.294D+00 0.592D+00
 Coeff:      0.313D-04-0.717D-04-0.292D-03-0.641D-03-0.206D-02-0.156D-02
 Coeff:      0.168D-01 0.101D+00 0.294D+00 0.592D+00
 Gap=     0.260 Goal=   None    Shift=    0.000
 RMSDP=2.86D-07 MaxDP=4.95D-05 DE=-1.16D-08 OVMax= 3.66D-06

 Cycle  11  Pass 1  IDiag  1:
 RMSU=  1.66D-07    CP:  9.21D-01  1.04D+00  8.99D-01  6.00D-01  7.77D-01
                    CP:  7.20D-01  7.42D-01  8.47D-01  8.26D-01  6.87D-01
 E= -2159.38936437398     Delta-E=       -0.000000000966 Rises=F Damp=F
 DIIS: error= 1.48D-07 at cycle  11 NSaved=  11.
 NSaved=11 IEnMin=11 EnMin= -2159.38936437398     IErMin=11 ErrMin= 1.48D-07
[...]
 4,0.00019185,-0.00018315,-0.00014207,-0.00004291,0.00003501,0.00005102
 ,-0.00000392,-0.00000984,-0.00000757,0.00000288,-0.00000135,-0.0000060
 9,-0.00002322,-0.00001219,-0.00002818,0.00000893,0.00001520,0.00002394
 ,-0.00092306,0.00082619,0.00008302,-0.31721741,-0.21411540,0.13280727,
 0.00033164,0.00000155,-0.00100847,-0.00000216,0.00000504,-0.00000090,-
 0.00000381,0.00001122,0.00000499,-0.00000433,-0.00000355,-0.00000365,0
 .00001594,0.00000519,0.00000641,-0.00000085,-0.00000627,0.00000228,0.0
 0000145,0.00000118,0.00000457,-0.00000071,0.00000524,-0.00000459,-0.00
 002394,-0.00001174,0.00000298,-0.00003214,-0.00002102,0.00001186,-0.00
 005881,0.00003041,-0.00004783,-0.00036370,-0.00003634,0.00016603,0.000
 00675,-0.00000293,-0.00000603,-0.00002915,0.00003481,0.00000150,-0.000
 01750,0.00000879,0.00011324,-0.00001381,-0.00022655,0.00017046,0.00002
 981,-0.00001018,-0.00005617,0.00000211,0.00000718,-0.00001816,-0.00000
 308,0.00000390,0.00000287,0.00000995,-0.00000413,-0.00000396,-0.000015
 58,-0.00002980,0.00000721,0.00034928,0.00010027,0.00003629,0.00069125,
 0.00156513,0.00075591,-0.00057435,0.00005269,-0.00046426,0.00002205,0.
 00019119,0.00012264,-0.00002515,-0.00006787,-0.00007135,-0.00002851,0.
 00001718,0.00003667,0.00000810,-0.00000689,-0.00000560,-0.00004397,-0.
 00001512,0.00002038,-0.00000696,0.00001843,0.00001170,-0.00002930,0.00
 002315,0.00003191,0.00001589,0.00000470,0.00003455,0.00001052,0.000001
 15,-0.00001620,-0.00000443,0.00000751,0.00000080,0.00000946,-0.0000045
 6,0.00000581,-0.00001099,-0.00001443,-0.00000688,0.00000877,0.00000594
 ,0.00000567,-0.00001264,0.00000880,-0.00002342,0.00000925,0.00000066,0
 .00000317,-0.00001555,-0.00000631,-0.00000309,-0.00003415,-0.00001734,
 -0.00002379,-0.00003496,-0.00001990,-0.00001500,-0.00037584,-0.0001670
 5,-0.00029628,0.32198765,0.00007677,-0.00008368,0.00007499,-0.00016260
 ,0.00017242,-0.00012920,0.00014666,0.00018121,0.00004307,-0.00002086,-
 0.00000231,-0.00003501,0.00000251,0.00004792,0.00000035,-0.00003997,0.
 00002542,-0.00004443,0.00000090,0.00002125,0.00001255,0.00001850,-0.00
 003190,0.00000668,0.00000803,-0.00005699,0.00000367,-0.00001866,-0.000
 06965,0.00003891,-0.00022764,-0.00023996,0.00000553,0.00017135,-0.0001
 7368,0.00015761,-0.00007808,-0.00002599,-0.00012275,-0.00012380,0.0005
 1379,-0.00005639,0.00001030,-0.00035973,-0.00001400,0.00051471,-0.0001
 9044,-0.00019093,-0.00038087,-0.00019802,0.00009336,0.00037946,0.00007
 086,-0.00006184,-0.00014185,0.00004664,0.00012930,-0.00003584,-0.00000
 196,-0.00006507,0.00007730,-0.00004050,0.00005675,0.00060597,0.0006253
 8,-0.00033933,0.00097075,-0.00404985,-0.00392053,-0.02822811,-0.021405
 62,0.00801429,-0.00067752,0.00232931,-0.00028765,-0.00060621,-0.000542
 99,0.00012211,0.00025316,0.00008420,0.00004077,-0.00150439,-0.00011347
 ,0.00072309,0.00005512,-0.00035563,-0.00041287,0.00011766,0.00007861,0
 .00007596,0.00018785,0.00017591,0.00061700,0.00009570,-0.00013058,-0.0
 0011883,-0.00002702,0.00003815,0.00002311,-0.00000685,-0.00001665,0.00
 000430,-0.00000975,0.00000724,-0.00000635,-0.00000648,0.00000337,-0.00
 000176,0.00002485,-0.00004086,0.00000562,-0.00001932,-0.00179025,0.000
 14661,-0.18758999,-0.15517143,0.06097461,0.00043624,-0.00018611,-0.000
 40432,0.00002724,-0.00001773,-0.00001162,-0.00003481,-0.00003658,-0.00
 002764,0.00001734,-0.00000626,0.00000450,0.00000088,-0.00000782,0.0000
 0473,0.00000658,-0.00000884,-0.00000186,0.00000529,-0.00000010,0.00000
 263,-0.00000628,-0.00000254,-0.00000065,-0.00003023,0.00001402,-0.0000
 1099,-0.00000383,0.00001268,-0.00001557,0.00004305,0.00004055,0.000004
 00,0.00015465,0.00028558,-0.00006096,0.00004098,-0.00000582,0.00001679
 ,0.00009104,-0.00006661,-0.00006847,0.00003247,0.00018698,-0.00002740,
 -0.00055219,0.00020501,0.00006614,-0.00000386,0.00005035,0.00001331,0.
 00000475,-0.00001408,-0.00001854,-0.00000504,-0.00000196,0.00000687,0.
 00001966,-0.00000180,0.00000557,-0.00004391,0.00005947,-0.00001852,0.0
 0013878,0.00025347,-0.00009396,-0.00009139,-0.00013769,0.00076121,0.00
 027520,-0.00004358,0.00010949,0.00004858,-0.00012750,-0.00005159,0.000
 03926,-0.00002154,0.00004809,-0.00012415,-0.00005357,0.00003612,0.0000
 1231,-0.00000841,-0.00000978,-0.00004247,-0.00000747,-0.00001914,-0.00
 001397,0.00000817,0.00001033,-0.00000826,0.00001916,0.00000508,0.00001
 367,0.00000436,0.00002161,0.00000748,-0.00000592,-0.00000772,-0.000001
 67,-0.00000004,-0.00000475,0.00001398,-0.00000061,0.00000829,-0.000013
 19,-0.00001731,-0.00000542,0.00001046,-0.00000287,0.00000207,-0.000026
 84,0.00002900,-0.00001026,0.00001613,0.00000182,0.00001022,-0.00001035
 ,0.00000724,0.00000098,-0.00001883,0.00007110,0.00001518,-0.00004636,0
 .00003641,-0.00004948,0.00050353,0.00049107,0.00041308,0.21583802,0.17
 944487,-0.00004215,0.00002812,-0.00006545,0.00008299,-0.00004722,0.000
 09458,-0.00006201,-0.00002960,-0.00000920,-0.00003408,-0.00001302,0.00
 010374,-0.00001016,0.00001715,0.00000652,0.00002395,-0.00000941,0.0000
 4372,-0.00001062,-0.00000033,-0.00000165,0.00001138,0.00001189,-0.0000
 2559,0.00003294,0.00000058,-0.00005337,0.00009285,-0.00001809,-0.00011
 160,0.00011152,-0.00000415,-0.00012688,-0.00006043,0.00007177,-0.00011
 231,0.00000329,-0.00001691,0.00012531,-0.00014128,0.00017231,-0.000139
 09,-0.00008807,-0.00013727,-0.00000506,0.00023390,-0.00011433,0.000419
 01,-0.00014643,-0.00015311,0.00001436,-0.00012644,-0.00005439,-0.00004
 075,0.00002054,-0.00001184,-0.00003139,0.00002744,-0.00001195,0.000052
 35,-0.00003274,0.00002566,-0.00006248,0.00047899,0.00047715,0.00025415
 ,-0.00055439,-0.00395100,-0.00506070,-0.02372832,-0.01812027,0.0079582
 7,-0.00538647,-0.00413463,-0.00040482,-0.00050615,-0.00091273,0.000098
 53,0.00113174,0.00117166,-0.00046133,-0.00140241,-0.00101835,0.0018878
 0,0.00020801,-0.00037318,-0.00051444,-0.00006193,0.00013550,-0.0001058
 9,0.00038780,0.00065363,0.00029993,0.00001687,-0.00027726,-0.00032655,
 -0.00002527,0.00000945,0.00000428,-0.00003796,-0.00002338,0.00001092,0
 .00002463,-0.00000027,-0.00001131,-0.00010207,-0.00001611,0.00004352,0
 .00004533,0.00001839,-0.00007529,0.00088058,0.00103829,0.00167449,0.16
 019379,0.09086167,-0.09668715,-0.00008986,-0.00046755,-0.00142456,-0.0
 0000009,0.00000247,-0.00000475,-0.00000733,-0.00001978,0.00001699,0.00
 000453,-0.00000592,-0.00001239,0.00000032,-0.00000181,-0.00000095,-0.0
 0000270,0.00000135,-0.00000273,-0.00000387,-0.00000034,0.00000070,0.00
 000475,0.00000287,-0.00000428,0.00001012,-0.00000948,0.00001198,-0.000
 01504,-0.00001971,0.00003027,-0.00005998,0.00001959,0.00002808,0.00000
 542,0.00002064,0.00015224,-0.00000933,0.00000191,-0.00001165,0.0000783
 0,-0.00004561,-0.00002980,0.00013377,0.00004807,-0.00005647,-0.0002589
 1,0.00018651,-0.00021792,0.00000822,0.00005149,-0.00000191,-0.00000470
 ,0.00000982,-0.00000033,-0.00000049,0.00000070,-0.00000351,-0.00000348
 ,-0.00000080,-0.00000520,0.00002037,-0.00002750,0.00001782,0.00013781,
 0.00023010,-0.00004454,0.00057054,-0.00064017,0.00007073,0.00030675,0.
 00022265,-0.00025852,0.00001328,0.00008055,0.00009534,-0.00001696,0.00
 003156,-0.00006742,-0.00022706,-0.00010451,-0.00000241,0.00007755,0.00
 002881,-0.00000594,-0.00000699,0.00001984,0.00001906,-0.00000100,0.000
 06881,0.00004006,-0.00001087,-0.00000474,0.00000620,0.00001957,0.00000
 501,0.00002741,-0.00000655,0.00001319,-0.00002426,0.00000657,0.0000139
 3,-0.00000552,0.00002813,-0.00000169,0.00000444,-0.00003440,-0.0000229
 0,0.00000066,0.00003083,0.00000930,0.00000955,-0.00004939,0.00001593,-
 0.00002050,0.00001898,0.00000393,-0.00000443,-0.00002393,-0.00000093,0
 .00001587,-0.00005493,0.00003912,0.00002841,-0.00003250,-0.00008906,0.
 00013628,0.00074241,0.00132574,0.00017672,-0.13502048,-0.06777675,0.09
 161264,0.00035547,-0.00001620,0.00015289,-0.00044658,0.00022636,-0.000
 29477,-0.00003183,-0.00004086,-0.00003063,-0.00000655,0.00004658,-0.00
 012626,-0.00000718,-0.00003979,-0.00001016,-0.00010194,0.00008390,-0.0
 0011408,-0.00000529,-0.00002818,0.00001618,0.00004426,0.00001216,0.000
 02199,0.00001773,0.00002783,0.00007274,-0.00002397,-0.00001441,0.00015
 698,0.00004298,-0.00003534,0.00016730,0.00093989,-0.00018594,0.0002761
 7,-0.00115845,0.00070891,0.00139175,-0.00559900,-0.00239418,-0.0039188
 5,0.00111815,-0.00049648,-0.00021369,-0.03592185,-0.00403257,0.0256623
 4,-0.00066604,-0.00192960,-0.00057705,0.00102325,0.00086145,0.00026518
 ,-0.00032720,0.00021446,0.00034818,-0.00009915,-0.00004734,-0.00013293
 ,0.00012200,0.00000838,0.00015704,-0.00022094,0.00030111,0.00120564,0.
 00030744,0.00007156,-0.00116680,0.00049738,0.00205004,0.00062617,-0.00
 000592,-0.00050596,-0.00031535,0.00047142,0.00037442,-0.00010759,-0.00
 029790,-0.00014675,0.00035270,-0.00020386,-0.00002982,-0.00015357,0.00
 007747,-0.00008783,-0.00008226,-0.00008342,0.00008917,0.00017666,-0.00
 011760,-0.00014270,-0.00013493,-0.00000255,0.00005025,0.00002189,0.000
 01094,-0.00000747,-0.00000106,0.00001617,0.00000842,-0.00001288,-0.000
 01156,-0.00000461,0.00000996,0.00005275,0.00000143,-0.00005476,-0.0000
 2667,0.00000929,0.00007213,-0.00020764,-0.00012028,0.00000620,-0.00419
 224,-0.00163665,-0.00170434,-0.23539588,-0.03157858,0.19984628,0.00001
 986,-0.00002441,0.00000642,-0.00000466,0.00000728,-0.00002898,0.000000
 37,0.00000067,0.00000908,0.00001241,0.00000477,0.00001423,0.00000634,-
 0.00001552,0.00000865,0.00001185,0.00000499,0.00000613,-0.00001115,0.0
 0000194,-0.00000033,-0.00005691,-0.00000069,-0.00001942,-0.00001620,-0
 .00000203,-0.00003236,0.00001011,0.00002188,-0.00005359,-0.00006780,0.
 00017604,-0.00026399,-0.00032063,-0.00020840,-0.00024770,0.00030877,-0
 .00015209,-0.00019121,-0.00045226,0.00075653,0.00037307,0.00213881,0.0
 0086502,0.00134897,-0.00002520,0.00003779,0.00000201,0.00000941,-0.000
 05016,-0.00001776,-0.00000420,-0.00000515,0.00000613,0.00005446,0.0000
 0030,0.00002051,-0.00007120,0.00000689,-0.00002982,-0.00022369,-0.0000
 7423,-0.00015810,-0.00000478,-0.00001735,0.00013177,-0.00004951,0.0000
 3287,-0.00000282,-0.00003995,0.00000375,0.00000044,0.00000995,0.000072
 00,0.00005721,-0.00001269,0.00000774,0.00003988,-0.00002186,-0.0000608
 3,-0.00003820,0.00001228,-0.00004811,-0.00015007,0.00000686,-0.0000124
 8,-0.00000715,-0.00000761,-0.00000425,0.00000287,-0.00001039,0.0000013
 4,-0.00000445,0.00000264,-0.00000030,0.00000041,-0.00000482,0.00000036
 ,0.00000511,-0.00000858,-0.00000243,0.00000086,0.00001292,0.00000482,-
 0.00000240,-0.00001083,-0.00000156,-0.00000447,0.00001798,-0.00000651,
 0.00000593,-0.00000762,-0.00000145,0.00000518,0.00000928,-0.00000823,-
 0.00002250,0.00002304,-0.00004843,-0.00004563,0.00000932,0.00003322,-0
 .00009403,-0.00002013,-0.00000846,0.00003510,0.00010436,-0.00053173,0.
 00227346,0.27873555,-0.00002816,-0.00011607,0.00005168,-0.00001377,0.0
 0014266,-0.00006243,0.00021888,0.00020657,0.00002728,-0.00002231,-0.00
 001819,0.00000288,0.00000645,0.00005789,-0.00000562,-0.00002997,0.0000
 0864,-0.00003005,0.00000136,0.00003918,0.00000821,0.00001453,-0.000050
 03,0.00001239,-0.00000780,-0.00007141,0.00000559,-0.00002206,-0.000044
 02,0.00000670,-0.00028790,-0.00016914,-0.00005186,-0.00014955,-0.00025
 306,0.00016927,0.00038906,0.00010255,-0.00045619,0.00149358,-0.0001301
 1,-0.00029450,0.00047558,0.00004278,0.00055864,-0.00739087,-0.00159192
 ,0.00589334,-0.00503560,-0.00062836,0.00126644,0.00090940,-0.00037818,
 -0.00041781,-0.00019685,0.00010974,0.00018856,-0.00000283,-0.00001988,
 -0.00015070,0.00009653,-0.00008561,0.00009446,0.00175631,0.00065162,0.
 00109735,-0.00046390,0.00069229,-0.00227692,0.00050738,0.00214152,-0.0
 0116807,-0.00001579,-0.00055551,-0.00039808,0.00028648,0.00039993,-0.0
 0020782,-0.00014465,-0.00014721,0.00045528,-0.00002444,-0.00009485,-0.
 00014481,-0.00008844,0.00002718,-0.00006480,0.00012705,-0.00009339,0.0
 0010359,-0.00004738,-0.00015053,-0.00002246,-0.00001494,0.00003010,-0.
 00001085,0.00000479,-0.00000182,-0.00000672,0.00000788,-0.00000350,-0.
 00000236,-0.00001103,0.00000884,-0.00000455,0.00001276,0.00000292,-0.0
 0000546,0.00001186,-0.00004765,0.00002771,-0.00012477,-0.00023373,0.00
 005732,-0.00142126,-0.00617364,-0.00018599,-0.02951547,-0.01410558,0.0
 1876383,0.00002165,-0.00001480,-0.00001602,-0.00001815,-0.00002480,-0.
 00001464,0.00001331,-0.00000532,0.00000298,-0.00000475,-0.00001065,0.0
 0000230,0.00000647,-0.00000747,-0.00000187,0.00000312,-0.00000323,0.00
 000181,-0.00000666,-0.00000379,0.00000090,-0.00003556,0.00002431,-0.00
 001631,0.00000291,0.00002355,-0.00002235,0.00002664,0.00001496,0.00002
 252,0.00029318,0.00005387,0.00009527,0.00016847,-0.00000288,0.00010572
 ,-0.00000584,-0.00005989,0.00004563,-0.00021140,0.00094010,-0.00071440
 ,0.00074171,0.00099581,-0.00067897,-0.00013879,-0.00012831,0.00016786,
 0.00001885,-0.00000763,-0.00004732,-0.00001501,-0.00001228,0.00000627,
 0.00003976,0.00001362,0.00002272,-0.00004090,0.00011453,-0.00002739,0.
 00014417,-0.00011173,0.00023804,0.00015042,-0.00036232,-0.00041603,0.0
 0000484,-0.00002273,0.00010146,-0.00001210,-0.00002220,-0.00001274,0.0
 0002532,-0.00005143,-0.00004363,0.00001354,-0.00000626,0.00002965,-0.0
 0005488,-0.00005807,-0.00000640,-0.00004916,0.00001566,-0.00002580,-0.
 00000124,-0.00001116,-0.00000514,-0.00000104,0.00000324,-0.00000005,-0
 .00000382,0.00000182,-0.00000146,0.00000293,-0.00000454,0.00000188,-0.
 00000128,-0.00000225,-0.00000222,-0.00000114,-0.00000105,0.00000537,0.
 00000326,-0.00000560,-0.00000650,-0.00000189,-0.00000221,-0.00000105,-
 0.00000283,0.00000916,-0.00000288,0.00000290,-0.00000118,0.00000717,-0
 .00000484,0.00000979,-0.00000411,-0.00000482,0.00005308,0.00002084,-0.
 00002659,0.00007594,-0.00008823,-0.00002693,0.00002624,0.00003411,0.00
 010568,0.00023187,0.00154092,0.03762039,0.01883523,-0.00027640,0.00007
 160,-0.00028085,0.00047455,-0.00035742,0.00043081,-0.00027700,-0.00005
 937,0.00005845,-0.00001187,-0.00002703,0.00014968,-0.00003132,0.000069
 86,0.00004984,0.00012128,-0.00007449,0.00015901,-0.00002374,0.00003878
 ,0.00000059,0.00001183,-0.00000908,-0.00007232,0.00008064,-0.00004743,
 -0.00013157,0.00014136,-0.00003627,-0.00021786,0.00035941,0.00003920,-
 0.00026547,-0.00030597,0.00036800,-0.00069170,-0.00071365,0.00048240,0
 .00164521,-0.00371432,-0.00157059,-0.00240135,-0.00030149,0.00032684,0
 .00004858,-0.01610001,-0.00263612,0.01476669,-0.00286736,0.00150078,0.
 00248551,-0.00059000,-0.00153658,-0.00114570,0.00027243,0.00030533,-0.
 00015291,0.00022781,-0.00008636,0.00029618,-0.00004398,0.00002872,-0.0
 0041812,0.00146431,0.00044728,-0.00267393,-0.00110208,-0.00070795,0.00
 102412,-0.00189563,-0.00693097,-0.00312371,0.00016943,0.00180543,0.000
 64788,-0.00084375,-0.00112795,-0.00026574,0.00048389,0.00034835,-0.000
 16284,0.00031618,-0.00007391,-0.00033987,-0.00040270,0.00020952,0.0002
 7337,0.00052014,-0.00013392,-0.00025162,0.00024951,0.00050191,0.001075
 87,0.00014343,-0.00032252,-0.00032662,-0.00005451,0.00004107,0.0000362
 7,-0.00002836,-0.00003720,0.00000740,0.00000496,0.00001696,-0.00003051
 ,-0.00010274,-0.00001145,0.00004423,0.00008520,-0.00004736,-0.00005177
 ,-0.00008529,0.00011544,0.00067512,0.00098693,0.00217655,0.00376596,0.
 25005013,0.02713563,-0.30228966,-0.00001486,0.00001043,-0.00001274,-0.
 00002644,-0.00000826,0.00000507,0.00000493,-0.00001426,-0.00001303,0.0
 0000849,-0.00000704,-0.00001599,-0.00001002,0.00001013,-0.00001130,-0.
 00001434,-0.00000679,-0.00000332,0.00001997,0.00000329,-0.00001165,0.0
 0003559,-0.00000452,0.00004201,-0.00004235,-0.00002373,0.00007762,-0.0
 0007251,0.00002335,0.00002325,-0.00031630,0.00001825,0.00035957,-0.000
 51891,-0.00008091,-0.00028893,0.00009648,-0.00020549,0.00006326,0.0005
 2909,-0.00032136,-0.00039238,-0.00263810,0.00036601,-0.00041842,0.0002
 1082,0.00024139,-0.00019986,0.00001333,0.00002868,-0.00002968,-0.00003
 359,-0.00002653,-0.00002888,0.00000464,0.00001622,-0.00004414,0.000044
 46,0.00000305,0.00009142,-0.00007504,0.00006787,0.00003854,-0.00004303
 ,0.00079898,0.00052133,0.00002930,-0.00004110,-0.00011031,0.00006205,0
 .00002502,0.00004098,-0.00001142,-0.00000140,0.00001891,0.00013830,0.0
 0002903,-0.00001263,0.00001024,0.00004477,0.00004730,-0.00023697,0.000
 05360,0.00039884,-0.00001301,0.00004058,0.00001824,-0.00002048,0.00002
 454,0.00003044,0.00002822,0.00000629,0.00004573,0.00000668,0.00000361,
 -0.00002193,0.00000144,0.00001253,-0.00001058,0.00003048,-0.00000597,0
 .00001613,-0.00004057,-0.00004093,-0.00001862,0.00003807,0.00000608,0.
 00001517,-0.00005526,0.00004135,-0.00003756,0.00002992,-0.00000096,0.0
 0000659,-0.00005569,0.00001343,0.00003192,-0.00009486,0.00011789,0.000
 06498,-0.00012456,0.00000534,0.00001163,0.00013458,0.00013639,-0.00012
 116,0.00138281,0.00156578,0.00104938,-0.22479285,-0.02312037,0.2864381
 1\\0.00001638,-0.00000816,0.00000205,-0.00002575,0.00002087,0.00000419
 ,0.00001743,-0.00000483,0.00000901,0.00001121,0.00000547,-0.00001662,-
 0.00000821,0.00000347,0.00002115,0.00001872,0.00000100,-0.00000696,-0.
 00000488,-0.00002586,0.00000020,-0.00001545,0.00001966,0.00001371,-0.0
 0000640,0.00000874,-0.00000287,0.00000192,0.00000702,0.00001695,-0.000
 00549,-0.00000409,-0.00000013,-0.00001620,-0.00000342,-0.00001064,0.00
 000888,0.00001771,0.00000169,-0.00000248,0.00001334,0.00000517,0.00000
 861,-0.00001530,0.00000413,0.00000099,0.00000103,-0.00000878,0.0000221
 7,-0.00000878,-0.00000166,-0.00001131,-0.00000484,0.00000104,0.0000036
 9,-0.00001773,-0.00001077,0.00001311,-0.00001158,0.00001421,-0.0000297
 6,0.00003260,-0.00001266,-0.00001355,0.00000289,0.00000075,0.00000152,
 0.00000097,0.00000656,0.00000181,-0.00000499,0.00000230,0.00000594,0.0
 0001317,-0.00000868,0.00000527,-0.00000114,-0.00001494,-0.00000798,-0.
 00000264,0.00001389,-0.00000042,0.00000444,-0.00001162,-0.00000206,0.0
 0000648,0.00000560,0.00000159,-0.00000815,-0.00000620,0.00000442,-0.00
 001063,0.00000478,-0.00001110,0.00000732,0.00000617,-0.00000200,-0.000
 00139,0.00000615,-0.00000305,0.00000250,0.00000530,0.00000130,0.000000
 05,-0.00000799,0.00000081,-0.00000241,0.00000581,-0.00000065,0.0000050
 5,-0.00000690,-0.00000887,-0.00000887,0.00000261,-0.00000027,-0.000006
 88,0.00000231,0.00000193,-0.00000434,-0.00000856,0.00000691,-0.0000027
 7,-0.00000013,0.00000152,0.00000161,-0.00000037,0.00000026,-0.00000194
 ,0.00000375,0.00000460,0.00000194,0.00000283,0.00000491,-0.00000355,-0
 .00000010,-0.00000003,0.00000637,0.00000270,-0.00000402,0.00000446,0.0
 0000072,0.00000547,0.00000610,-0.00001078,0.00000514,-0.00000369,0.000
 01098,0.00000568,-0.00000188,-0.00000327,0.00000322,-0.00000169,-0.000
 00112,0.00000553,-0.00000084,-0.00000468,-0.00000173,-0.00000409,-0.00
 000003,0.00000150,-0.00000386,-0.00000301,0.00000739,-0.00000623,0.000
 00375,-0.00000208,-0.00000126,-0.00000469,0.00000160,-0.00000132,-0.00
 000688,-0.00000216,0.00000135,-0.00000183,-0.00000238,-0.00000029,-0.0
 0000743,-0.00000167,-0.00000927,-0.00000026,0.00000287,-0.00000329,0.0
 0000586,-0.00000420,-0.00000190,-0.00000294,0.00000272,-0.00000292,0.0
 0000014,-0.00000328,-0.00000050,-0.00000066,-0.00000307,-0.00000300,0.
 00000150,0.00000011,-0.00000069,0.00000051,-0.00000261,0.00000169,0.00
 000061,0.00001003,0.00000477,0.00000781,0.00000088,-0.00000117,-0.0000
 0357,-0.00000403,0.00000194,-0.00000194,-0.00000194,-0.00000100,0.0000
 0008,0.00000004,0.00000012,-0.00000100,-0.00000420,0.00000472,-0.00000
 109,0.00000017,0.00000383,0.00000019,-0.00000530,0.00000384,-0.0000062
 1,-0.00000142,0.00000180,-0.00000240,0.00000020,0.00000118,-0.00000166
 ,0.00000045,0.00000090,0.00000131,0.00000839,0.00000537,0.00000299,0.0
 0000669,0.00000057,-0.00000102,-0.00000711,0.00000183,-0.00000383,-0.0
 0000044,-0.00000488,0.00000379,-0.00000117,-0.00000668,-0.00000092,-0.
 00000525,-0.00000343,0.00000254\\\@


 HERE WE GO......
 SLIDING DOWN THE RAZOR BLADE OF LIFE......
                                 TOM LEHRER
 Job cpu time:      22 days 14 hours 27 minutes 53.6 seconds.
 File lengths (MBytes):  RWF=  24079 Int=      0 D2E=      0 Chk=     97 Scr=      1
 Normal termination of Gaussian 09 at Sat Apr  2 09:30:20 2016.
