 Entering Gaussian System, Link 0=g09
 Initial command:
 /share/apps//g09/l1.exe "/scratch/Gau-6260.inp" -scrdir="/scratch/"
 Entering Link 1 = /share/apps//g09/l1.exe PID=      6261.
  
 Copyright (c) 1988,1990,1992,1993,1995,1998,2003,2009,2013,
            Gaussian, Inc.  All Rights Reserved.
  
 This is part of the Gaussian(R) 09 program.  It is based on
 the Gaussian(R) 03 system (copyright 2003, Gaussian, Inc.),
 the Gaussian(R) 98 system (copyright 1998, Gaussian, Inc.),
 the Gaussian(R) 94 system (copyright 1995, Gaussian, Inc.),
 the Gaussian 92(TM) system (copyright 1992, Gaussian, Inc.),
 the Gaussian 90(TM) system (copyright 1990, Gaussian, Inc.),
 the Gaussian 88(TM) system (copyright 1988, Gaussian, Inc.),
 the Gaussian 86(TM) system (copyright 1986, Carnegie Mellon
 University), and the Gaussian 82(TM) system (copyright 1983,
 Carnegie Mellon University). Gaussian is a federally registered
 trademark of Gaussian, Inc.
  
 This software contains proprietary and confidential information,
 including trade secrets, belonging to Gaussian, Inc.
  
 This software is provided under written license and may be
 used, copied, transmitted, or stored only in accord with that
 written license.
  
 The following legend is applicable only to US Government
 contracts under FAR:
  
                    RESTRICTED RIGHTS LEGEND
  
 Use, reproduction and disclosure by the US Government is
 subject to restrictions as set forth in subparagraphs (a)
 and (c) of the Commercial Computer Software - Restricted
 Rights clause in FAR 52.227-19.
  
 Gaussian, Inc.
 340 Quinnipiac St., Bldg. 40, Wallingford CT 06492
  
  
 ---------------------------------------------------------------
 Warning -- This program may not be used in any manner that
 competes with the business of Gaussian, Inc. or will provide
 assistance to any competitor of Gaussian, Inc.  The licensee
 of this program is prohibited from giving any competitor of
 Gaussian, Inc. access to this program.  By using this program,
 the user acknowledges that Gaussian, Inc. is engaged in the
 business of creating and licensing software in the field of
 computational chemistry and represents and warrants to the
 licensee that it is not a competitor of Gaussian, Inc. and that
 it will not use this program in any manner prohibited above.
 ---------------------------------------------------------------
  

 Cite this work as:
 Gaussian 09, Revision D.01,
 M. J. Frisch, G. W. Trucks, H. B. Schlegel, G. E. Scuseria, 
 M. A. Robb, J. R. Cheeseman, G. Scalmani, V. Barone, B. Mennucci, 
 G. A. Petersson, H. Nakatsuji, M. Caricato, X. Li, H. P. Hratchian, 
 A. F. Izmaylov, J. Bloino, G. Zheng, J. L. Sonnenberg, M. Hada, 
 M. Ehara, K. Toyota, R. Fukuda, J. Hasegawa, M. Ishida, T. Nakajima, 
 Y. Honda, O. Kitao, H. Nakai, T. Vreven, J. A. Montgomery, Jr., 
 J. E. Peralta, F. Ogliaro, M. Bearpark, J. J. Heyd, E. Brothers, 
 K. N. Kudin, V. N. Staroverov, T. Keith, R. Kobayashi, J. Normand, 
 K. Raghavachari, A. Rendell, J. C. Burant, S. S. Iyengar, J. Tomasi, 
 M. Cossi, N. Rega, J. M. Millam, M. Klene, J. E. Knox, J. B. Cross, 
 V. Bakken, C. Adamo, J. Jaramillo, R. Gomperts, R. E. Stratmann, 
 O. Yazyev, A. J. Austin, R. Cammi, C. Pomelli, J. W. Ochterski, 
 R. L. Martin, K. Morokuma, V. G. Zakrzewski, G. A. Voth, 
 P. Salvador, J. J. Dannenberg, S. Dapprich, A. D. Daniels, 
 O. Farkas, J. B. Foresman, J. V. Ortiz, J. Cioslowski, 
 and D. J. Fox, Gaussian, Inc., Wallingford CT, 2013.
 
 ******************************************
 Gaussian 09:  EM64L-G09RevD.01 24-Apr-2013
                 8-Apr-2016 
 ******************************************
 %nproc=20
 Will use up to   20 processors via shared memory.
 %mem=80GB
 %chk=Tri_A131_of.chk
 ----------------------------------------------------------------------
 #P PBE1PBE/6-311+G(d,p) opt=ModRedundant freq optcyc=999 EmpiricalDisp
 ersion=GD3
 ----------------------------------------------------------------------
 1/6=999,14=-1,18=120,19=15,26=3,38=1/1,3;
 2/9=110,12=2,17=6,18=5,40=1/2;
 3/5=4,6=6,7=111,11=2,16=1,25=1,30=1,71=1,74=-13,124=31/1,2,3;
 4//1;
 5/5=2,38=5/2;
 6/7=2,8=2,9=2,10=2,28=1/1;
 7//1,2,3,16;
 1/6=999,14=-1,18=20,19=15,26=3/3(2);
 2/9=110/2;
 99//99;
 2/9=110/2;
 3/5=4,6=6,7=111,11=2,16=1,25=1,30=1,71=1,74=-13,124=31/1,2,3;
 4/5=5,16=3,69=1/1;
 5/5=2,38=5/2;
 7//1,2,3,16;
 1/6=999,14=-1,18=20,19=15,26=3/3(-5);
 2/9=110/2;
 6/7=2,8=2,9=2,10=2,19=2,28=1/1;
 99/9=1/99;
 Leave Link    1 at Fri Apr  8 12:05:33 2016, MaxMem= 10737418240 cpu:         1.9
 (Enter /share/apps//g09/l101.exe)
 -------
 disacch
 -------
 Symbolic Z-matrix:
 Charge =  1 Multiplicity = 1
 O                    -3.94214  -5.37257   4.07802 
 C                    -2.59622  -5.76734   4.22402 
 C                    -1.89094  -5.79064   2.8667 
 C                    -1.94232  -4.40533   2.21742 
 C                    -3.40311  -3.95104   2.10609 
 C                    -4.09734  -4.05994   3.4778 
 H                    -2.63821  -6.77569   4.66833 
 H                    -2.41474  -6.51532   2.22214 
 H                    -1.3786   -3.69614   2.8441 
 H                    -3.42098  -2.88146   1.8132 
 H                    -3.64754  -3.30839   4.15286 
 O                    -3.98582  -4.75089   1.07668 
 O                    -1.28225  -4.44095   0.95129 
 O                    -0.52745  -6.21659   3.0641 
 O                    -1.8579   -4.87143   5.04582 
 C                    -5.60048  -3.80613   3.42381 
 H                    -6.01443  -3.84772   4.44377 
 H                    -5.78966  -2.80345   3.01569 
 O                    -6.28996  -4.72506   2.55712 
 H                    -6.26891  -5.59859   2.99026 
 H                    -4.94741  -4.82816   1.27466 
 H                    -1.9497   -4.76713   0.31236 
 H                    -0.07901  -6.04699   2.21182 
 O                     0.35051  -5.114     8.47865 
 C                    -0.80827  -4.26031   8.57594 
 C                    -1.37901  -3.95818   7.17319 
 C                    -1.65009  -5.25481   6.40453 
 C                    -0.48288  -6.27006   6.48332 
 C                    -0.00165  -6.39224   7.9309 
 H                    -1.58586  -4.76216   9.1814 
 H                    -0.62888  -3.38659   6.59211 
 H                    -2.56814  -5.70986   6.82103 
 H                    -0.85908  -7.26591   6.18132 
 H                    -0.86843  -6.80014   8.49325 
 O                     0.5797   -5.90152   5.59772 
 O                    -2.60353  -3.26089   7.26944 
 O                    -0.47966  -3.12799   9.33968 
 C                     1.16462  -7.36994   8.19286 
 H                     1.05553  -7.78451   9.20651 
 H                     1.10558  -8.20389   7.48005 
 O                     2.47426  -6.80367   8.05179 
 H                     2.65784  -6.30573   8.86755 
 H                     0.20431  -5.8932    4.67504 
 H                    -2.3795   -2.34785   7.55544 
 O                     2.2472   -0.74941   9.85343 
 C                     2.22877  -0.00381   8.67017 
 C                     0.79476   0.22781   8.12759 
 C                    -0.20403  -0.78859   8.69987 
 C                     0.4501   -2.16595   8.80902 
 C                     1.60383  -2.05878   9.83338 
 H                     2.69706   0.96431   8.91872 
 H                     0.80379   0.08815   7.0359 
 H                    -0.50368  -0.47825   9.71991 
 H                     1.13856  -2.14836   10.82871 
 H                     0.82303  -2.49054   7.82511 
 O                    -1.36144  -0.84972   7.86012 
 O                     0.33016   1.56421   8.31127 
 O                     3.04148  -0.70197   7.70383 
 C                     2.64837  -3.16827   9.73255 
 H                     3.38726  -3.02097   10.53653 
 H                     2.13914  -4.12956   9.88416 
 O                     3.32079  -3.23306   8.46468 
 H                     3.50529  -2.29591   8.20119 
 H                    -1.71773   0.05534   7.79241 
 H                     0.32366   1.76671   9.26625 
 C                     3.44766   0.00922   6.514 
 H                     2.62499   0.65009   6.15365 
 H                     4.30651   0.65789   6.75418 
 C                     3.81385  -1.04111   5.47255 
 H                     4.62092  -1.66452   5.89248 
 H                     4.2502   -0.53122   4.5994 
 C                     2.61337  -1.89846   5.03967 
 H                     2.01812  -2.1651    5.92859 
 H                     1.94406  -1.28881   4.41221 
 C                     2.9697   -3.1725    4.25763 
 H                     2.04467  -3.61303   3.85056 
 H                     3.58889  -2.91516   3.3834 
 C                     3.72374  -4.25268   5.03702 
 H                     4.69047  -3.89473   5.41695 
 H                     3.9264   -5.10983   4.3815 
 N                     2.94223  -4.76158   6.20827 
 H                     2.94333  -4.10383   7.03313 
 H                     3.30404  -5.65018   6.59077 
 H                     1.94724  -5.01441   5.95447 
 
 The following ModRedundant input section has been read:
 B      35      84 B                                                           
 B      41      83 B                                                           
 B      62      82 B                                                           
 B      14      43 B                                                           
 B      44      56 B                                                           
 
 NAtoms=     84 NQM=       84 NQMF=       0 NMMI=      0 NMMIF=      0
                NMic=       0 NMicF=      0.
                    Isotopes and Nuclear Properties:
 (Nuclear quadrupole moments (NQMom) in fm**2, nuclear magnetic moments (NMagM)
  in nuclear magnetons)

  Atom         1           2           3           4           5           6           7           8           9          10
 IAtWgt=          16          12          12          12          12          12           1           1           1           1
 AtmWgt=  15.9949146  12.0000000  12.0000000  12.0000000  12.0000000  12.0000000   1.0078250   1.0078250   1.0078250   1.0078250
 NucSpn=           0           0           0           0           0           0           1           1           1           1
 AtZEff=   0.0000000   0.0000000   0.0000000   0.0000000   0.0000000   0.0000000   0.0000000   0.0000000   0.0000000   0.0000000
 NQMom=    0.0000000   0.0000000   0.0000000   0.0000000   0.0000000   0.0000000   0.0000000   0.0000000   0.0000000   0.0000000
 NMagM=    0.0000000   0.0000000   0.0000000   0.0000000   0.0000000   0.0000000   2.7928460   2.7928460   2.7928460   2.7928460
 AtZNuc=   8.0000000   6.0000000   6.0000000   6.0000000   6.0000000   6.0000000   1.0000000   1.0000000   1.0000000   1.0000000

  Atom        11          12          13          14          15          16          17          18          19          20
 IAtWgt=           1          16          16          16          16          12           1           1          16           1
 AtmWgt=   1.0078250  15.9949146  15.9949146  15.9949146  15.9949146  12.0000000   1.0078250   1.0078250  15.9949146   1.0078250
 NucSpn=           1           0           0           0           0           0           1           1           0           1
 AtZEff=   0.0000000   0.0000000   0.0000000   0.0000000   0.0000000   0.0000000   0.0000000   0.0000000   0.0000000   0.0000000
 NQMom=    0.0000000   0.0000000   0.0000000   0.0000000   0.0000000   0.0000000   0.0000000   0.0000000   0.0000000   0.0000000
 NMagM=    2.7928460   0.0000000   0.0000000   0.0000000   0.0000000   0.0000000   2.7928460   2.7928460   0.0000000   2.7928460
 AtZNuc=   1.0000000   8.0000000   8.0000000   8.0000000   8.0000000   6.0000000   1.0000000   1.0000000   8.0000000   1.0000000

  Atom        21          22          23          24          25          26          27          28          29          30
 IAtWgt=           1           1           1          16          12          12          12          12          12           1
 AtmWgt=   1.0078250   1.0078250   1.0078250  15.9949146  12.0000000  12.0000000  12.0000000  12.0000000  12.0000000   1.0078250
 NucSpn=           1           1           1           0           0           0           0           0           0           1
 AtZEff=   0.0000000   0.0000000   0.0000000   0.0000000   0.0000000   0.0000000   0.0000000   0.0000000   0.0000000   0.0000000
 NQMom=    0.0000000   0.0000000   0.0000000   0.0000000   0.0000000   0.0000000   0.0000000   0.0000000   0.0000000   0.0000000
 NMagM=    2.7928460   2.7928460   2.7928460   0.0000000   0.0000000   0.0000000   0.0000000   0.0000000   0.0000000   2.7928460
 AtZNuc=   1.0000000   1.0000000   1.0000000   8.0000000   6.0000000   6.0000000   6.0000000   6.0000000   6.0000000   1.0000000

  Atom        31          32          33          34          35          36          37          38          39          40
 IAtWgt=           1           1           1           1          16          16          16          12           1           1
 AtmWgt=   1.0078250   1.0078250   1.0078250   1.0078250  15.9949146  15.9949146  15.9949146  12.0000000   1.0078250   1.0078250
 NucSpn=           1           1           1           1           0           0           0           0           1           1
 AtZEff=   0.0000000   0.0000000   0.0000000   0.0000000   0.0000000   0.0000000   0.0000000   0.0000000   0.0000000   0.0000000
 NQMom=    0.0000000   0.0000000   0.0000000   0.0000000   0.0000000   0.0000000   0.0000000   0.0000000   0.0000000   0.0000000
 NMagM=    2.7928460   2.7928460   2.7928460   2.7928460   0.0000000   0.0000000   0.0000000   0.0000000   2.7928460   2.7928460
 AtZNuc=   1.0000000   1.0000000   1.0000000   1.0000000   8.0000000   8.0000000   8.0000000   6.0000000   1.0000000   1.0000000

  Atom        41          42          43          44          45          46          47          48          49          50
 IAtWgt=          16           1           1           1          16          12          12          12          12          12
 AtmWgt=  15.9949146   1.0078250   1.0078250   1.0078250  15.9949146  12.0000000  12.0000000  12.0000000  12.0000000  12.0000000
 NucSpn=           0           1           1           1           0           0           0           0           0           0
 AtZEff=   0.0000000   0.0000000   0.0000000   0.0000000   0.0000000   0.0000000   0.0000000   0.0000000   0.0000000   0.0000000
 NQMom=    0.0000000   0.0000000   0.0000000   0.0000000   0.0000000   0.0000000   0.0000000   0.0000000   0.0000000   0.0000000
 NMagM=    0.0000000   2.7928460   2.7928460   2.7928460   0.0000000   0.0000000   0.0000000   0.0000000   0.0000000   0.0000000
 AtZNuc=   8.0000000   1.0000000   1.0000000   1.0000000   8.0000000   6.0000000   6.0000000   6.0000000   6.0000000   6.0000000

  Atom        51          52          53          54          55          56          57          58          59          60
 IAtWgt=           1           1           1           1           1          16          16          16          12           1
 AtmWgt=   1.0078250   1.0078250   1.0078250   1.0078250   1.0078250  15.9949146  15.9949146  15.9949146  12.0000000   1.0078250
 NucSpn=           1           1           1           1           1           0           0           0           0           1
 AtZEff=   0.0000000   0.0000000   0.0000000   0.0000000   0.0000000   0.0000000   0.0000000   0.0000000   0.0000000   0.0000000
 NQMom=    0.0000000   0.0000000   0.0000000   0.0000000   0.0000000   0.0000000   0.0000000   0.0000000   0.0000000   0.0000000
 NMagM=    2.7928460   2.7928460   2.7928460   2.7928460   2.7928460   0.0000000   0.0000000   0.0000000   0.0000000   2.7928460
 AtZNuc=   1.0000000   1.0000000   1.0000000   1.0000000   1.0000000   8.0000000   8.0000000   8.0000000   6.0000000   1.0000000

  Atom        61          62          63          64          65          66          67          68          69          70
 IAtWgt=           1          16           1           1           1          12           1           1          12           1
 AtmWgt=   1.0078250  15.9949146   1.0078250   1.0078250   1.0078250  12.0000000   1.0078250   1.0078250  12.0000000   1.0078250
 NucSpn=           1           0           1           1           1           0           1           1           0           1
 AtZEff=   0.0000000   0.0000000   0.0000000   0.0000000   0.0000000   0.0000000   0.0000000   0.0000000   0.0000000   0.0000000
 NQMom=    0.0000000   0.0000000   0.0000000   0.0000000   0.0000000   0.0000000   0.0000000   0.0000000   0.0000000   0.0000000
 NMagM=    2.7928460   0.0000000   2.7928460   2.7928460   2.7928460   0.0000000   2.7928460   2.7928460   0.0000000   2.7928460
 AtZNuc=   1.0000000   8.0000000   1.0000000   1.0000000   1.0000000   6.0000000   1.0000000   1.0000000   6.0000000   1.0000000

  Atom        71          72          73          74          75          76          77          78          79          80
 IAtWgt=           1          12           1           1          12           1           1          12           1           1
 AtmWgt=   1.0078250  12.0000000   1.0078250   1.0078250  12.0000000   1.0078250   1.0078250  12.0000000   1.0078250   1.0078250
 NucSpn=           1           0           1           1           0           1           1           0           1           1
 AtZEff=   0.0000000   0.0000000   0.0000000   0.0000000   0.0000000   0.0000000   0.0000000   0.0000000   0.0000000   0.0000000
 NQMom=    0.0000000   0.0000000   0.0000000   0.0000000   0.0000000   0.0000000   0.0000000   0.0000000   0.0000000   0.0000000
 NMagM=    2.7928460   0.0000000   2.7928460   2.7928460   0.0000000   2.7928460   2.7928460   0.0000000   2.7928460   2.7928460
 AtZNuc=   1.0000000   6.0000000   1.0000000   1.0000000   6.0000000   1.0000000   1.0000000   6.0000000   1.0000000   1.0000000

  Atom        81          82          83          84
 IAtWgt=          14           1           1           1
 AtmWgt=  14.0030740   1.0078250   1.0078250   1.0078250
 NucSpn=           2           1           1           1
 AtZEff=   0.0000000   0.0000000   0.0000000   0.0000000
 NQMom=    2.0440000   0.0000000   0.0000000   0.0000000
 NMagM=    0.4037610   2.7928460   2.7928460   2.7928460
 AtZNuc=   7.0000000   1.0000000   1.0000000   1.0000000
 Leave Link  101 at Fri Apr  8 12:05:33 2016, MaxMem= 10737418240 cpu:         4.8
 (Enter /share/apps//g09/l103.exe)

 GradGradGradGradGradGradGradGradGradGradGradGradGradGradGradGradGradGrad
 Berny optimization.
 Initialization pass.
                           ----------------------------
                           !    Initial Parameters    !
                           ! (Angstroms and Degrees)  !
 --------------------------                            --------------------------
 ! Name  Definition              Value          Derivative Info.                !
 --------------------------------------------------------------------------------
 ! R1    R(1,2)                  1.4102         estimate D2E/DX2                !
 ! R2    R(1,6)                  1.4517         estimate D2E/DX2                !
 ! R3    R(2,3)                  1.5298         estimate D2E/DX2                !
 ! R4    R(2,7)                  1.1027         estimate D2E/DX2                !
 ! R5    R(2,15)                 1.4224         estimate D2E/DX2                !
 ! R6    R(3,4)                  1.5308         estimate D2E/DX2                !
 ! R7    R(3,8)                  1.1023         estimate D2E/DX2                !
 ! R8    R(3,14)                 1.442          estimate D2E/DX2                !
 ! R9    R(4,5)                  1.5338         estimate D2E/DX2                !
 ! R10   R(4,9)                  1.1016         estimate D2E/DX2                !
 ! R11   R(4,13)                 1.4283         estimate D2E/DX2                !
 ! R12   R(5,6)                  1.5412         estimate D2E/DX2                !
 ! R13   R(5,10)                 1.1091         estimate D2E/DX2                !
 ! R14   R(5,12)                 1.4279         estimate D2E/DX2                !
 ! R15   R(6,11)                 1.1058         estimate D2E/DX2                !
 ! R16   R(6,16)                 1.5254         estimate D2E/DX2                !
 ! R17   R(12,21)                0.9848         estimate D2E/DX2                !
 ! R18   R(13,22)                0.9799         estimate D2E/DX2                !
 ! R19   R(14,23)                0.9779         estimate D2E/DX2                !
 ! R20   R(14,43)                1.7987         estimate D2E/DX2                !
 ! R21   R(15,27)                1.427          estimate D2E/DX2                !
 ! R22   R(16,17)                1.1015         estimate D2E/DX2                !
 ! R23   R(16,18)                1.099          estimate D2E/DX2                !
 ! R24   R(16,19)                1.4391         estimate D2E/DX2                !
 ! R25   R(19,20)                0.9752         estimate D2E/DX2                !
 ! R26   R(24,25)                1.4426         estimate D2E/DX2                !
 ! R27   R(24,29)                1.4346         estimate D2E/DX2                !
 ! R28   R(25,26)                1.5443         estimate D2E/DX2                !
 ! R29   R(25,30)                1.1059         estimate D2E/DX2                !
 ! R30   R(25,37)                1.4048         estimate D2E/DX2                !
 ! R31   R(26,27)                1.5315         estimate D2E/DX2                !
 ! R32   R(26,31)                1.1077         estimate D2E/DX2                !
 ! R33   R(26,36)                1.4124         estimate D2E/DX2                !
 ! R34   R(27,28)                1.549          estimate D2E/DX2                !
 ! R35   R(27,32)                1.1061         estimate D2E/DX2                !
 ! R36   R(28,29)                1.5304         estimate D2E/DX2                !
 ! R37   R(28,33)                1.1065         estimate D2E/DX2                !
 ! R38   R(28,35)                1.4315         estimate D2E/DX2                !
 ! R39   R(29,34)                1.1108         estimate D2E/DX2                !
 ! R40   R(29,38)                1.5442         estimate D2E/DX2                !
 ! R41   R(35,43)                0.9962         estimate D2E/DX2                !
 ! R42   R(35,84)                1.6687         estimate D2E/DX2                !
 ! R43   R(36,44)                0.9827         estimate D2E/DX2                !
 ! R44   R(37,49)                1.4393         estimate D2E/DX2                !
 ! R45   R(38,39)                1.1006         estimate D2E/DX2                !
 ! R46   R(38,40)                1.0987         estimate D2E/DX2                !
 ! R47   R(38,41)                1.4338         estimate D2E/DX2                !
 ! R48   R(41,42)                0.9732         estimate D2E/DX2                !
 ! R49   R(41,83)                2.0381         estimate D2E/DX2                !
 ! R50   R(44,56)                1.8368         estimate D2E/DX2                !
 ! R51   R(45,46)                1.3987         estimate D2E/DX2                !
 ! R52   R(45,50)                1.459          estimate D2E/DX2                !
 ! R53   R(46,47)                1.5506         estimate D2E/DX2                !
 ! R54   R(46,51)                1.1038         estimate D2E/DX2                !
 ! R55   R(46,58)                1.4428         estimate D2E/DX2                !
 ! R56   R(47,48)                1.5356         estimate D2E/DX2                !
 ! R57   R(47,52)                1.1006         estimate D2E/DX2                !
 ! R58   R(47,57)                1.4267         estimate D2E/DX2                !
 ! R59   R(48,49)                1.5287         estimate D2E/DX2                !
 ! R60   R(48,53)                1.1075         estimate D2E/DX2                !
 ! R61   R(48,56)                1.4313         estimate D2E/DX2                !
 ! R62   R(49,50)                1.5466         estimate D2E/DX2                !
 ! R63   R(49,55)                1.1011         estimate D2E/DX2                !
 ! R64   R(50,54)                1.1024         estimate D2E/DX2                !
 ! R65   R(50,59)                1.5272         estimate D2E/DX2                !
 ! R66   R(56,64)                0.975          estimate D2E/DX2                !
 ! R67   R(57,65)                0.9762         estimate D2E/DX2                !
 ! R68   R(58,66)                1.4445         estimate D2E/DX2                !
 ! R69   R(59,60)                1.1018         estimate D2E/DX2                !
 ! R70   R(59,61)                1.0984         estimate D2E/DX2                !
 ! R71   R(59,62)                1.4366         estimate D2E/DX2                !
 ! R72   R(62,63)                0.9908         estimate D2E/DX2                !
 ! R73   R(62,82)                1.7176         estimate D2E/DX2                !
 ! R74   R(66,67)                1.1033         estimate D2E/DX2                !
 ! R75   R(66,68)                1.1028         estimate D2E/DX2                !
 ! R76   R(66,69)                1.5238         estimate D2E/DX2                !
 ! R77   R(69,70)                1.1029         estimate D2E/DX2                !
 ! R78   R(69,71)                1.1013         estimate D2E/DX2                !
 ! R79   R(69,72)                1.5374         estimate D2E/DX2                !
 ! R80   R(72,73)                1.1025         estimate D2E/DX2                !
 ! R81   R(72,74)                1.1015         estimate D2E/DX2                !
 ! R82   R(72,75)                1.5368         estimate D2E/DX2                !
 ! R83   R(75,76)                1.1025         estimate D2E/DX2                !
 ! R84   R(75,77)                1.1018         estimate D2E/DX2                !
 ! R85   R(75,78)                1.5306         estimate D2E/DX2                !
 ! R86   R(78,79)                1.0987         estimate D2E/DX2                !
 ! R87   R(78,80)                1.0979         estimate D2E/DX2                !
 ! R88   R(78,81)                1.4972         estimate D2E/DX2                !
 ! R89   R(81,82)                1.055          estimate D2E/DX2                !
 ! R90   R(81,83)                1.0329         estimate D2E/DX2                !
 ! R91   R(81,84)                1.0575         estimate D2E/DX2                !
 ! A1    A(2,1,6)              113.4515         estimate D2E/DX2                !
 ! A2    A(1,2,3)              110.6353         estimate D2E/DX2                !
 ! A3    A(1,2,7)              105.1507         estimate D2E/DX2                !
 ! A4    A(1,2,15)             112.2662         estimate D2E/DX2                !
 ! A5    A(3,2,7)              111.1696         estimate D2E/DX2                !
 ! A6    A(3,2,15)             106.4341         estimate D2E/DX2                !
 ! A7    A(7,2,15)             111.2812         estimate D2E/DX2                !
 ! A8    A(2,3,4)              110.3083         estimate D2E/DX2                !
 ! A9    A(2,3,8)              108.0449         estimate D2E/DX2                !
 ! A10   A(2,3,14)             108.5998         estimate D2E/DX2                !
 ! A11   A(4,3,8)              109.3291         estimate D2E/DX2                !
 ! A12   A(4,3,14)             110.9226         estimate D2E/DX2                !
 ! A13   A(8,3,14)             109.5827         estimate D2E/DX2                !
 ! A14   A(3,4,5)              109.3163         estimate D2E/DX2                !
 ! A15   A(3,4,9)              108.9138         estimate D2E/DX2                !
 ! A16   A(3,4,13)             109.7496         estimate D2E/DX2                !
 ! A17   A(5,4,9)              109.7539         estimate D2E/DX2                !
 ! A18   A(5,4,13)             112.5302         estimate D2E/DX2                !
 ! A19   A(9,4,13)             106.491          estimate D2E/DX2                !
 ! A20   A(4,5,6)              110.0877         estimate D2E/DX2                !
 ! A21   A(4,5,10)             108.6711         estimate D2E/DX2                !
 ! A22   A(4,5,12)             105.9659         estimate D2E/DX2                !
 ! A23   A(6,5,10)             107.2124         estimate D2E/DX2                !
 ! A24   A(6,5,12)             114.7223         estimate D2E/DX2                !
 ! A25   A(10,5,12)            110.074          estimate D2E/DX2                !
 ! A26   A(1,6,5)              112.5645         estimate D2E/DX2                !
 ! A27   A(1,6,11)             108.5808         estimate D2E/DX2                !
 ! A28   A(1,6,16)             105.6906         estimate D2E/DX2                !
 ! A29   A(5,6,11)             108.1842         estimate D2E/DX2                !
 ! A30   A(5,6,16)             113.6166         estimate D2E/DX2                !
 ! A31   A(11,6,16)            108.0199         estimate D2E/DX2                !
 ! A32   A(5,12,21)            107.3066         estimate D2E/DX2                !
 ! A33   A(4,13,22)            105.7557         estimate D2E/DX2                !
 ! A34   A(3,14,23)            105.2521         estimate D2E/DX2                !
 ! A35   A(3,14,43)            117.0114         estimate D2E/DX2                !
 ! A36   A(23,14,43)           124.2529         estimate D2E/DX2                !
 ! A37   A(2,15,27)            117.1613         estimate D2E/DX2                !
 ! A38   A(6,16,17)            109.3451         estimate D2E/DX2                !
 ! A39   A(6,16,18)            109.5478         estimate D2E/DX2                !
 ! A40   A(6,16,19)            112.78           estimate D2E/DX2                !
 ! A41   A(17,16,18)           108.2776         estimate D2E/DX2                !
 ! A42   A(17,16,19)           110.701          estimate D2E/DX2                !
 ! A43   A(18,16,19)           106.0499         estimate D2E/DX2                !
 ! A44   A(16,19,20)           107.1054         estimate D2E/DX2                !
 ! A45   A(25,24,29)           110.8462         estimate D2E/DX2                !
 ! A46   A(24,25,26)           110.5729         estimate D2E/DX2                !
 ! A47   A(24,25,30)           109.4613         estimate D2E/DX2                !
 ! A48   A(24,25,37)           109.0119         estimate D2E/DX2                !
 ! A49   A(26,25,30)           109.0395         estimate D2E/DX2                !
 ! A50   A(26,25,37)           114.9991         estimate D2E/DX2                !
 ! A51   A(30,25,37)           103.4501         estimate D2E/DX2                !
 ! A52   A(25,26,27)           110.835          estimate D2E/DX2                !
 ! A53   A(25,26,31)           109.0975         estimate D2E/DX2                !
 ! A54   A(25,26,36)           110.8001         estimate D2E/DX2                !
 ! A55   A(27,26,31)           107.0643         estimate D2E/DX2                !
 ! A56   A(27,26,36)           107.3805         estimate D2E/DX2                !
 ! A57   A(31,26,36)           111.5982         estimate D2E/DX2                !
 ! A58   A(15,27,26)           106.0334         estimate D2E/DX2                !
 ! A59   A(15,27,28)           109.5277         estimate D2E/DX2                !
 ! A60   A(15,27,32)           110.3777         estimate D2E/DX2                !
 ! A61   A(26,27,28)           113.3285         estimate D2E/DX2                !
 ! A62   A(26,27,32)           107.8326         estimate D2E/DX2                !
 ! A63   A(28,27,32)           109.6724         estimate D2E/DX2                !
 ! A64   A(27,28,29)           109.7184         estimate D2E/DX2                !
 ! A65   A(27,28,33)           108.6507         estimate D2E/DX2                !
 ! A66   A(27,28,35)           111.0468         estimate D2E/DX2                !
 ! A67   A(29,28,33)           107.0505         estimate D2E/DX2                !
 ! A68   A(29,28,35)           111.8592         estimate D2E/DX2                !
 ! A69   A(33,28,35)           108.3736         estimate D2E/DX2                !
 ! A70   A(24,29,28)           111.5448         estimate D2E/DX2                !
 ! A71   A(24,29,34)           108.9927         estimate D2E/DX2                !
 ! A72   A(24,29,38)           108.2984         estimate D2E/DX2                !
 ! A73   A(28,29,34)           105.2368         estimate D2E/DX2                !
 ! A74   A(28,29,38)           116.6471         estimate D2E/DX2                !
 ! A75   A(34,29,38)           105.7207         estimate D2E/DX2                !
 ! A76   A(28,35,43)           107.1845         estimate D2E/DX2                !
 ! A77   A(28,35,84)           127.8026         estimate D2E/DX2                !
 ! A78   A(43,35,84)           120.1604         estimate D2E/DX2                !
 ! A79   A(26,36,44)           106.3131         estimate D2E/DX2                !
 ! A80   A(25,37,49)           119.303          estimate D2E/DX2                !
 ! A81   A(29,38,39)           108.6549         estimate D2E/DX2                !
 ! A82   A(29,38,40)           109.2648         estimate D2E/DX2                !
 ! A83   A(29,38,41)           115.0307         estimate D2E/DX2                !
 ! A84   A(39,38,40)           107.8366         estimate D2E/DX2                !
 ! A85   A(39,38,41)           109.2646         estimate D2E/DX2                !
 ! A86   A(40,38,41)           106.5613         estimate D2E/DX2                !
 ! A87   A(38,41,42)           106.9722         estimate D2E/DX2                !
 ! A88   A(38,41,83)           131.7559         estimate D2E/DX2                !
 ! A89   A(42,41,83)           103.563          estimate D2E/DX2                !
 ! A90   A(36,44,56)           158.8267         estimate D2E/DX2                !
 ! A91   A(46,45,50)           117.4485         estimate D2E/DX2                !
 ! A92   A(45,46,47)           112.8193         estimate D2E/DX2                !
 ! A93   A(45,46,51)           105.7514         estimate D2E/DX2                !
 ! A94   A(45,46,58)           107.5315         estimate D2E/DX2                !
 ! A95   A(47,46,51)           109.8851         estimate D2E/DX2                !
 ! A96   A(47,46,58)           111.0291         estimate D2E/DX2                !
 ! A97   A(51,46,58)           109.6488         estimate D2E/DX2                !
 ! A98   A(46,47,48)           111.8533         estimate D2E/DX2                !
 ! A99   A(46,47,52)           108.695          estimate D2E/DX2                !
 ! A100  A(46,47,57)           113.3295         estimate D2E/DX2                !
 ! A101  A(48,47,52)           106.9174         estimate D2E/DX2                !
 ! A102  A(48,47,57)           111.1122         estimate D2E/DX2                !
 ! A103  A(52,47,57)           104.4317         estimate D2E/DX2                !
 ! A104  A(47,48,49)           110.1605         estimate D2E/DX2                !
 ! A105  A(47,48,53)           109.4961         estimate D2E/DX2                !
 ! A106  A(47,48,56)           109.6079         estimate D2E/DX2                !
 ! A107  A(49,48,53)           107.6069         estimate D2E/DX2                !
 ! A108  A(49,48,56)           110.4529         estimate D2E/DX2                !
 ! A109  A(53,48,56)           109.4847         estimate D2E/DX2                !
 ! A110  A(37,49,48)           110.6187         estimate D2E/DX2                !
 ! A111  A(37,49,50)           106.4999         estimate D2E/DX2                !
 ! A112  A(37,49,55)           110.56           estimate D2E/DX2                !
 ! A113  A(48,49,50)           107.702          estimate D2E/DX2                !
 ! A114  A(48,49,55)           110.2864         estimate D2E/DX2                !
 ! A115  A(50,49,55)           111.0758         estimate D2E/DX2                !
 ! A116  A(45,50,49)           113.5931         estimate D2E/DX2                !
 ! A117  A(45,50,54)           104.2784         estimate D2E/DX2                !
 ! A118  A(45,50,59)           110.5661         estimate D2E/DX2                !
 ! A119  A(49,50,54)           106.1138         estimate D2E/DX2                !
 ! A120  A(49,50,59)           114.5928         estimate D2E/DX2                !
 ! A121  A(54,50,59)           106.8139         estimate D2E/DX2                !
 ! A122  A(44,56,48)           125.4772         estimate D2E/DX2                !
 ! A123  A(44,56,64)           122.8919         estimate D2E/DX2                !
 ! A124  A(48,56,64)           107.2535         estimate D2E/DX2                !
 ! A125  A(47,57,65)           108.8084         estimate D2E/DX2                !
 ! A126  A(46,58,66)           118.1538         estimate D2E/DX2                !
 ! A127  A(50,59,60)           108.2627         estimate D2E/DX2                !
 ! A128  A(50,59,61)           108.0364         estimate D2E/DX2                !
 ! A129  A(50,59,62)           114.2789         estimate D2E/DX2                !
 ! A130  A(60,59,61)           109.0986         estimate D2E/DX2                !
 ! A131  A(60,59,62)           109.6405         estimate D2E/DX2                !
 ! A132  A(61,59,62)           107.419          estimate D2E/DX2                !
 ! A133  A(59,62,63)           106.2124         estimate D2E/DX2                !
 ! A134  A(59,62,82)           130.9636         estimate D2E/DX2                !
 ! A135  A(63,62,82)           107.3851         estimate D2E/DX2                !
 ! A136  A(58,66,67)           110.2028         estimate D2E/DX2                !
 ! A137  A(58,66,68)           109.221          estimate D2E/DX2                !
 ! A138  A(58,66,69)           106.9287         estimate D2E/DX2                !
 ! A139  A(67,66,68)           108.0693         estimate D2E/DX2                !
 ! A140  A(67,66,69)           110.8755         estimate D2E/DX2                !
 ! A141  A(68,66,69)           111.5401         estimate D2E/DX2                !
 ! A142  A(66,69,70)           107.7734         estimate D2E/DX2                !
 ! A143  A(66,69,71)           108.5401         estimate D2E/DX2                !
 ! A144  A(66,69,72)           112.9036         estimate D2E/DX2                !
 ! A145  A(70,69,71)           105.8817         estimate D2E/DX2                !
 ! A146  A(70,69,72)           111.3092         estimate D2E/DX2                !
 ! A147  A(71,69,72)           110.1422         estimate D2E/DX2                !
 ! A148  A(69,72,73)           109.234          estimate D2E/DX2                !
 ! A149  A(69,72,74)           109.0387         estimate D2E/DX2                !
 ! A150  A(69,72,75)           115.122          estimate D2E/DX2                !
 ! A151  A(73,72,74)           105.3707         estimate D2E/DX2                !
 ! A152  A(73,72,75)           109.5707         estimate D2E/DX2                !
 ! A153  A(74,72,75)           108.0501         estimate D2E/DX2                !
 ! A154  A(72,75,76)           108.942          estimate D2E/DX2                !
 ! A155  A(72,75,77)           109.9046         estimate D2E/DX2                !
 ! A156  A(72,75,78)           116.114          estimate D2E/DX2                !
 ! A157  A(76,75,77)           105.777          estimate D2E/DX2                !
 ! A158  A(76,75,78)           108.6246         estimate D2E/DX2                !
 ! A159  A(77,75,78)           106.9784         estimate D2E/DX2                !
 ! A160  A(75,78,79)           112.3115         estimate D2E/DX2                !
 ! A161  A(75,78,80)           109.7464         estimate D2E/DX2                !
 ! A162  A(75,78,81)           112.4001         estimate D2E/DX2                !
 ! A163  A(79,78,80)           107.3616         estimate D2E/DX2                !
 ! A164  A(79,78,81)           107.4288         estimate D2E/DX2                !
 ! A165  A(80,78,81)           107.341          estimate D2E/DX2                !
 ! A166  A(78,81,82)           113.5273         estimate D2E/DX2                !
 ! A167  A(78,81,83)           113.5335         estimate D2E/DX2                !
 ! A168  A(78,81,84)           112.6213         estimate D2E/DX2                !
 ! A169  A(82,81,83)           104.2685         estimate D2E/DX2                !
 ! A170  A(82,81,84)           109.7355         estimate D2E/DX2                !
 ! A171  A(83,81,84)           102.2851         estimate D2E/DX2                !
 ! A172  A(41,83,81)           127.5734         estimate D2E/DX2                !
 ! A173  A(35,84,81)           161.7141         estimate D2E/DX2                !
 ! A174  L(14,43,35,15,-1)     182.9663         estimate D2E/DX2                !
 ! A175  L(62,82,81,24,-1)     186.8869         estimate D2E/DX2                !
 ! A176  L(14,43,35,15,-2)     169.1827         estimate D2E/DX2                !
 ! A177  L(62,82,81,24,-2)     192.8793         estimate D2E/DX2                !
 ! D1    D(6,1,2,3)            -58.8548         estimate D2E/DX2                !
 ! D2    D(6,1,2,7)           -178.9707         estimate D2E/DX2                !
 ! D3    D(6,1,2,15)            59.8862         estimate D2E/DX2                !
 ! D4    D(2,1,6,5)             56.2474         estimate D2E/DX2                !
 ! D5    D(2,1,6,11)           -63.5024         estimate D2E/DX2                !
 ! D6    D(2,1,6,16)          -179.1874         estimate D2E/DX2                !
 ! D7    D(1,2,3,4)             59.0331         estimate D2E/DX2                !
 ! D8    D(1,2,3,8)            -60.4229         estimate D2E/DX2                !
 ! D9    D(1,2,3,14)          -179.211          estimate D2E/DX2                !
 ! D10   D(7,2,3,4)            175.4771         estimate D2E/DX2                !
 ! D11   D(7,2,3,8)             56.0211         estimate D2E/DX2                !
 ! D12   D(7,2,3,14)           -62.7669         estimate D2E/DX2                !
 ! D13   D(15,2,3,4)           -63.1894         estimate D2E/DX2                !
 ! D14   D(15,2,3,8)           177.3545         estimate D2E/DX2                !
 ! D15   D(15,2,3,14)           58.5665         estimate D2E/DX2                !
 ! D16   D(1,2,15,27)           99.7761         estimate D2E/DX2                !
 ! D17   D(3,2,15,27)         -139.0387         estimate D2E/DX2                !
 ! D18   D(7,2,15,27)          -17.7766         estimate D2E/DX2                !
 ! D19   D(2,3,4,5)            -56.0721         estimate D2E/DX2                !
 ! D20   D(2,3,4,9)             63.841          estimate D2E/DX2                !
 ! D21   D(2,3,4,13)          -179.9378         estimate D2E/DX2                !
 ! D22   D(8,3,4,5)             62.6024         estimate D2E/DX2                !
 ! D23   D(8,3,4,9)           -177.4845         estimate D2E/DX2                !
 ! D24   D(8,3,4,13)           -61.2632         estimate D2E/DX2                !
 ! D25   D(14,3,4,5)          -176.4426         estimate D2E/DX2                !
 ! D26   D(14,3,4,9)           -56.5296         estimate D2E/DX2                !
 ! D27   D(14,3,4,13)           59.6917         estimate D2E/DX2                !
 ! D28   D(2,3,14,23)         -169.193          estimate D2E/DX2                !
 ! D29   D(2,3,14,43)          -26.6484         estimate D2E/DX2                !
 ! D30   D(4,3,14,23)          -47.8131         estimate D2E/DX2                !
 ! D31   D(4,3,14,43)           94.7315         estimate D2E/DX2                !
 ! D32   D(8,3,14,23)           72.9921         estimate D2E/DX2                !
 ! D33   D(8,3,14,43)         -144.4634         estimate D2E/DX2                !
 ! D34   D(3,4,5,6)             52.4685         estimate D2E/DX2                !
 ! D35   D(3,4,5,10)           169.6084         estimate D2E/DX2                !
 ! D36   D(3,4,5,12)           -72.1288         estimate D2E/DX2                !
 ! D37   D(9,4,5,6)            -66.9267         estimate D2E/DX2                !
 ! D38   D(9,4,5,10)            50.2131         estimate D2E/DX2                !
 ! D39   D(9,4,5,12)           168.4759         estimate D2E/DX2                !
 ! D40   D(13,4,5,6)           174.6809         estimate D2E/DX2                !
 ! D41   D(13,4,5,10)          -68.1793         estimate D2E/DX2                !
 ! D42   D(13,4,5,12)           50.0835         estimate D2E/DX2                !
 ! D43   D(3,4,13,22)           84.0708         estimate D2E/DX2                !
 ! D44   D(5,4,13,22)          -37.8964         estimate D2E/DX2                !
 ! D45   D(9,4,13,22)         -158.1888         estimate D2E/DX2                !
 ! D46   D(4,5,6,1)            -52.2105         estimate D2E/DX2                !
 ! D47   D(4,5,6,11)            67.7688         estimate D2E/DX2                !
 ! D48   D(4,5,6,16)          -172.2977         estimate D2E/DX2                !
 ! D49   D(10,5,6,1)          -170.2542         estimate D2E/DX2                !
 ! D50   D(10,5,6,11)          -50.2749         estimate D2E/DX2                !
 ! D51   D(10,5,6,16)           69.6587         estimate D2E/DX2                !
 ! D52   D(12,5,6,1)            67.1835         estimate D2E/DX2                !
 ! D53   D(12,5,6,11)         -172.8371         estimate D2E/DX2                !
 ! D54   D(12,5,6,16)          -52.9036         estimate D2E/DX2                !
 ! D55   D(4,5,12,21)          151.9754         estimate D2E/DX2                !
 ! D56   D(6,5,12,21)           30.3064         estimate D2E/DX2                !
 ! D57   D(10,5,12,21)         -90.6976         estimate D2E/DX2                !
 ! D58   D(1,6,16,17)           59.1071         estimate D2E/DX2                !
 ! D59   D(1,6,16,18)          177.6209         estimate D2E/DX2                !
 ! D60   D(1,6,16,19)          -64.5192         estimate D2E/DX2                !
 ! D61   D(5,6,16,17)         -176.9869         estimate D2E/DX2                !
 ! D62   D(5,6,16,18)          -58.4731         estimate D2E/DX2                !
 ! D63   D(5,6,16,19)           59.3868         estimate D2E/DX2                !
 ! D64   D(11,6,16,17)         -56.9603         estimate D2E/DX2                !
 ! D65   D(11,6,16,18)          61.5535         estimate D2E/DX2                !
 ! D66   D(11,6,16,19)         179.4134         estimate D2E/DX2                !
 ! D67   D(3,14,35,28)          40.5094         estimate D2E/DX2                !
 ! D68   D(3,14,35,84)        -121.4675         estimate D2E/DX2                !
 ! D69   D(23,14,35,28)        179.688          estimate D2E/DX2                !
 ! D70   D(23,14,35,84)         17.7112         estimate D2E/DX2                !
 ! D71   D(2,15,27,26)        -157.328          estimate D2E/DX2                !
 ! D72   D(2,15,27,28)          80.0497         estimate D2E/DX2                !
 ! D73   D(2,15,27,32)         -40.7991         estimate D2E/DX2                !
 ! D74   D(6,16,19,20)          70.1024         estimate D2E/DX2                !
 ! D75   D(17,16,19,20)        -52.7702         estimate D2E/DX2                !
 ! D76   D(18,16,19,20)       -170.0011         estimate D2E/DX2                !
 ! D77   D(29,24,25,26)        -63.6544         estimate D2E/DX2                !
 ! D78   D(29,24,25,30)         56.4902         estimate D2E/DX2                !
 ! D79   D(29,24,25,37)        168.99           estimate D2E/DX2                !
 ! D80   D(25,24,29,28)         65.0458         estimate D2E/DX2                !
 ! D81   D(25,24,29,34)        -50.7208         estimate D2E/DX2                !
 ! D82   D(25,24,29,38)       -165.2796         estimate D2E/DX2                !
 ! D83   D(24,25,26,27)         53.7278         estimate D2E/DX2                !
 ! D84   D(24,25,26,31)        -63.9194         estimate D2E/DX2                !
 ! D85   D(24,25,26,36)        172.8361         estimate D2E/DX2                !
 ! D86   D(30,25,26,27)        -66.6692         estimate D2E/DX2                !
 ! D87   D(30,25,26,31)        175.6837         estimate D2E/DX2                !
 ! D88   D(30,25,26,36)         52.4391         estimate D2E/DX2                !
 ! D89   D(37,25,26,27)        177.7102         estimate D2E/DX2                !
 ! D90   D(37,25,26,31)         60.0631         estimate D2E/DX2                !
 ! D91   D(37,25,26,36)        -63.1815         estimate D2E/DX2                !
 ! D92   D(24,25,37,49)         68.0901         estimate D2E/DX2                !
 ! D93   D(26,25,37,49)        -56.713          estimate D2E/DX2                !
 ! D94   D(30,25,37,49)       -175.5034         estimate D2E/DX2                !
 ! D95   D(25,26,27,15)       -166.3978         estimate D2E/DX2                !
 ! D96   D(25,26,27,28)        -46.2197         estimate D2E/DX2                !
 ! D97   D(25,26,27,32)         75.3709         estimate D2E/DX2                !
 ! D98   D(31,26,27,15)        -47.5159         estimate D2E/DX2                !
 ! D99   D(31,26,27,28)         72.6622         estimate D2E/DX2                !
 ! D100  D(31,26,27,32)       -165.7472         estimate D2E/DX2                !
 ! D101  D(36,26,27,15)         72.4542         estimate D2E/DX2                !
 ! D102  D(36,26,27,28)       -167.3677         estimate D2E/DX2                !
 ! D103  D(36,26,27,32)        -45.7771         estimate D2E/DX2                !
 ! D104  D(25,26,36,44)         72.7138         estimate D2E/DX2                !
 ! D105  D(27,26,36,44)       -166.1162         estimate D2E/DX2                !
 ! D106  D(31,26,36,44)        -49.0758         estimate D2E/DX2                !
 ! D107  D(15,27,28,29)        164.5422         estimate D2E/DX2                !
 ! D108  D(15,27,28,33)        -78.7324         estimate D2E/DX2                !
 ! D109  D(15,27,28,35)         40.3681         estimate D2E/DX2                !
 ! D110  D(26,27,28,29)         46.3717         estimate D2E/DX2                !
 ! D111  D(26,27,28,33)        163.0972         estimate D2E/DX2                !
 ! D112  D(26,27,28,35)        -77.8024         estimate D2E/DX2                !
 ! D113  D(32,27,28,29)        -74.1823         estimate D2E/DX2                !
 ! D114  D(32,27,28,33)         42.5432         estimate D2E/DX2                !
 ! D115  D(32,27,28,35)        161.6436         estimate D2E/DX2                !
 ! D116  D(27,28,29,24)        -54.8964         estimate D2E/DX2                !
 ! D117  D(27,28,29,34)         63.1498         estimate D2E/DX2                !
 ! D118  D(27,28,29,38)        179.9494         estimate D2E/DX2                !
 ! D119  D(33,28,29,24)       -172.6235         estimate D2E/DX2                !
 ! D120  D(33,28,29,34)        -54.5773         estimate D2E/DX2                !
 ! D121  D(33,28,29,38)         62.2223         estimate D2E/DX2                !
 ! D122  D(35,28,29,24)         68.8033         estimate D2E/DX2                !
 ! D123  D(35,28,29,34)       -173.1506         estimate D2E/DX2                !
 ! D124  D(35,28,29,38)        -56.3509         estimate D2E/DX2                !
 ! D125  D(27,28,35,43)        -60.2339         estimate D2E/DX2                !
 ! D126  D(27,28,35,84)         94.656          estimate D2E/DX2                !
 ! D127  D(29,28,35,43)        176.8171         estimate D2E/DX2                !
 ! D128  D(29,28,35,84)        -28.2929         estimate D2E/DX2                !
 ! D129  D(33,28,35,43)         59.0326         estimate D2E/DX2                !
 ! D130  D(33,28,35,84)       -146.0774         estimate D2E/DX2                !
 ! D131  D(24,29,38,39)         84.122          estimate D2E/DX2                !
 ! D132  D(24,29,38,40)       -158.4612         estimate D2E/DX2                !
 ! D133  D(24,29,38,41)        -38.6958         estimate D2E/DX2                !
 ! D134  D(28,29,38,39)       -149.102          estimate D2E/DX2                !
 ! D135  D(28,29,38,40)        -31.6852         estimate D2E/DX2                !
 ! D136  D(28,29,38,41)         88.0802         estimate D2E/DX2                !
 ! D137  D(34,29,38,39)        -32.5693         estimate D2E/DX2                !
 ! D138  D(34,29,38,40)         84.8475         estimate D2E/DX2                !
 ! D139  D(34,29,38,41)       -155.387          estimate D2E/DX2                !
 ! D140  D(28,35,84,81)         96.8302         estimate D2E/DX2                !
 ! D141  D(43,35,84,81)       -111.1322         estimate D2E/DX2                !
 ! D142  D(26,36,44,56)         18.6289         estimate D2E/DX2                !
 ! D143  D(25,37,49,48)        120.56           estimate D2E/DX2                !
 ! D144  D(25,37,49,50)       -122.6785         estimate D2E/DX2                !
 ! D145  D(25,37,49,55)         -1.9037         estimate D2E/DX2                !
 ! D146  D(29,38,41,42)         79.173          estimate D2E/DX2                !
 ! D147  D(29,38,41,83)        -47.7787         estimate D2E/DX2                !
 ! D148  D(39,38,41,42)        -43.3179         estimate D2E/DX2                !
 ! D149  D(39,38,41,83)       -170.2696         estimate D2E/DX2                !
 ! D150  D(40,38,41,42)       -159.5782         estimate D2E/DX2                !
 ! D151  D(40,38,41,83)         73.4701         estimate D2E/DX2                !
 ! D152  D(38,41,83,81)         53.7234         estimate D2E/DX2                !
 ! D153  D(42,41,83,81)        -74.4388         estimate D2E/DX2                !
 ! D154  D(36,44,56,48)        -60.1516         estimate D2E/DX2                !
 ! D155  D(36,44,56,64)        146.3824         estimate D2E/DX2                !
 ! D156  D(50,45,46,47)         56.0068         estimate D2E/DX2                !
 ! D157  D(50,45,46,51)        176.1452         estimate D2E/DX2                !
 ! D158  D(50,45,46,58)        -66.7581         estimate D2E/DX2                !
 ! D159  D(46,45,50,49)        -28.0528         estimate D2E/DX2                !
 ! D160  D(46,45,50,54)       -143.119          estimate D2E/DX2                !
 ! D161  D(46,45,50,59)        102.4064         estimate D2E/DX2                !
 ! D162  D(45,46,47,48)        -20.0043         estimate D2E/DX2                !
 ! D163  D(45,46,47,52)       -137.8242         estimate D2E/DX2                !
 ! D164  D(45,46,47,57)        106.5513         estimate D2E/DX2                !
 ! D165  D(51,46,47,48)       -137.7388         estimate D2E/DX2                !
 ! D166  D(51,46,47,52)        104.4413         estimate D2E/DX2                !
 ! D167  D(51,46,47,57)        -11.1832         estimate D2E/DX2                !
 ! D168  D(58,46,47,48)        100.7853         estimate D2E/DX2                !
 ! D169  D(58,46,47,52)        -17.0347         estimate D2E/DX2                !
 ! D170  D(58,46,47,57)       -132.6592         estimate D2E/DX2                !
 ! D171  D(45,46,58,66)       -165.3675         estimate D2E/DX2                !
 ! D172  D(47,46,58,66)         70.7711         estimate D2E/DX2                !
 ! D173  D(51,46,58,66)        -50.8432         estimate D2E/DX2                !
 ! D174  D(46,47,48,49)        -38.3186         estimate D2E/DX2                !
 ! D175  D(46,47,48,53)         79.8334         estimate D2E/DX2                !
 ! D176  D(46,47,48,56)       -160.0509         estimate D2E/DX2                !
 ! D177  D(52,47,48,49)         80.5595         estimate D2E/DX2                !
 ! D178  D(52,47,48,53)       -161.2885         estimate D2E/DX2                !
 ! D179  D(52,47,48,56)        -41.1727         estimate D2E/DX2                !
 ! D180  D(57,47,48,49)       -166.0696         estimate D2E/DX2                !
 ! D181  D(57,47,48,53)        -47.9176         estimate D2E/DX2                !
 ! D182  D(57,47,48,56)         72.1981         estimate D2E/DX2                !
 ! D183  D(46,47,57,65)        -60.1351         estimate D2E/DX2                !
 ! D184  D(48,47,57,65)         66.811          estimate D2E/DX2                !
 ! D185  D(52,47,57,65)       -178.2623         estimate D2E/DX2                !
 ! D186  D(47,48,49,37)       -179.7704         estimate D2E/DX2                !
 ! D187  D(47,48,49,50)         64.2136         estimate D2E/DX2                !
 ! D188  D(47,48,49,55)        -57.1469         estimate D2E/DX2                !
 ! D189  D(53,48,49,37)         60.921          estimate D2E/DX2                !
 ! D190  D(53,48,49,50)        -55.0951         estimate D2E/DX2                !
 ! D191  D(53,48,49,55)       -176.4556         estimate D2E/DX2                !
 ! D192  D(56,48,49,37)        -58.5412         estimate D2E/DX2                !
 ! D193  D(56,48,49,50)       -174.5573         estimate D2E/DX2                !
 ! D194  D(56,48,49,55)         64.0822         estimate D2E/DX2                !
 ! D195  D(47,48,56,44)        147.0566         estimate D2E/DX2                !
 ! D196  D(47,48,56,64)        -56.0717         estimate D2E/DX2                !
 ! D197  D(49,48,56,44)         25.4999         estimate D2E/DX2                !
 ! D198  D(49,48,56,64)       -177.6284         estimate D2E/DX2                !
 ! D199  D(53,48,56,44)        -92.8206         estimate D2E/DX2                !
 ! D200  D(53,48,56,64)         64.0511         estimate D2E/DX2                !
 ! D201  D(37,49,50,45)       -150.6591         estimate D2E/DX2                !
 ! D202  D(37,49,50,54)        -36.6859         estimate D2E/DX2                !
 ! D203  D(37,49,50,59)         80.9178         estimate D2E/DX2                !
 ! D204  D(48,49,50,45)        -31.9691         estimate D2E/DX2                !
 ! D205  D(48,49,50,54)         82.0041         estimate D2E/DX2                !
 ! D206  D(48,49,50,59)       -160.3922         estimate D2E/DX2                !
 ! D207  D(55,49,50,45)         88.8977         estimate D2E/DX2                !
 ! D208  D(55,49,50,54)       -157.1291         estimate D2E/DX2                !
 ! D209  D(55,49,50,59)        -39.5254         estimate D2E/DX2                !
 ! D210  D(45,50,59,60)         52.9425         estimate D2E/DX2                !
 ! D211  D(45,50,59,61)        170.9644         estimate D2E/DX2                !
 ! D212  D(45,50,59,62)        -69.5467         estimate D2E/DX2                !
 ! D213  D(49,50,59,60)       -177.1274         estimate D2E/DX2                !
 ! D214  D(49,50,59,61)        -59.1054         estimate D2E/DX2                !
 ! D215  D(49,50,59,62)         60.3834         estimate D2E/DX2                !
 ! D216  D(54,50,59,60)        -59.9228         estimate D2E/DX2                !
 ! D217  D(54,50,59,61)         58.0992         estimate D2E/DX2                !
 ! D218  D(54,50,59,62)        177.588          estimate D2E/DX2                !
 ! D219  D(46,58,66,67)        -38.7554         estimate D2E/DX2                !
 ! D220  D(46,58,66,68)         79.8196         estimate D2E/DX2                !
 ! D221  D(46,58,66,69)       -159.3461         estimate D2E/DX2                !
 ! D222  D(50,59,62,63)         41.3545         estimate D2E/DX2                !
 ! D223  D(50,59,62,82)        -90.2896         estimate D2E/DX2                !
 ! D224  D(60,59,62,63)        -80.3809         estimate D2E/DX2                !
 ! D225  D(60,59,62,82)        147.975          estimate D2E/DX2                !
 ! D226  D(61,59,62,63)        161.1898         estimate D2E/DX2                !
 ! D227  D(61,59,62,82)         29.5457         estimate D2E/DX2                !
 ! D228  D(59,62,81,78)        167.7193         estimate D2E/DX2                !
 ! D229  D(59,62,81,83)        -73.0948         estimate D2E/DX2                !
 ! D230  D(59,62,81,84)         34.7886         estimate D2E/DX2                !
 ! D231  D(63,62,81,78)         30.1965         estimate D2E/DX2                !
 ! D232  D(63,62,81,83)        149.3824         estimate D2E/DX2                !
 ! D233  D(63,62,81,84)       -102.7342         estimate D2E/DX2                !
 ! D234  D(58,66,69,70)        -58.5699         estimate D2E/DX2                !
 ! D235  D(58,66,69,71)       -172.8126         estimate D2E/DX2                !
 ! D236  D(58,66,69,72)         64.7771         estimate D2E/DX2                !
 ! D237  D(67,66,69,70)       -178.7305         estimate D2E/DX2                !
 ! D238  D(67,66,69,71)         67.0268         estimate D2E/DX2                !
 ! D239  D(67,66,69,72)        -55.3835         estimate D2E/DX2                !
 ! D240  D(68,66,69,70)         60.7775         estimate D2E/DX2                !
 ! D241  D(68,66,69,71)        -53.4652         estimate D2E/DX2                !
 ! D242  D(68,66,69,72)       -175.8755         estimate D2E/DX2                !
 ! D243  D(66,69,72,73)        -42.3973         estimate D2E/DX2                !
 ! D244  D(66,69,72,74)         72.2719         estimate D2E/DX2                !
 ! D245  D(66,69,72,75)       -166.1384         estimate D2E/DX2                !
 ! D246  D(70,69,72,73)         78.9683         estimate D2E/DX2                !
 ! D247  D(70,69,72,74)       -166.3625         estimate D2E/DX2                !
 ! D248  D(70,69,72,75)        -44.7728         estimate D2E/DX2                !
 ! D249  D(71,69,72,73)       -163.9062         estimate D2E/DX2                !
 ! D250  D(71,69,72,74)        -49.237          estimate D2E/DX2                !
 ! D251  D(71,69,72,75)         72.3527         estimate D2E/DX2                !
 ! D252  D(69,72,75,76)       -170.3094         estimate D2E/DX2                !
 ! D253  D(69,72,75,77)        -54.8425         estimate D2E/DX2                !
 ! D254  D(69,72,75,78)         66.7157         estimate D2E/DX2                !
 ! D255  D(73,72,75,76)         66.1277         estimate D2E/DX2                !
 ! D256  D(73,72,75,77)       -178.4054         estimate D2E/DX2                !
 ! D257  D(73,72,75,78)        -56.8472         estimate D2E/DX2                !
 ! D258  D(74,72,75,76)        -48.1859         estimate D2E/DX2                !
 ! D259  D(74,72,75,77)         67.281          estimate D2E/DX2                !
 ! D260  D(74,72,75,78)       -171.1608         estimate D2E/DX2                !
 ! D261  D(72,75,78,79)        -60.4918         estimate D2E/DX2                !
 ! D262  D(72,75,78,80)       -179.8329         estimate D2E/DX2                !
 ! D263  D(72,75,78,81)         60.795          estimate D2E/DX2                !
 ! D264  D(76,75,78,79)        176.3675         estimate D2E/DX2                !
 ! D265  D(76,75,78,80)         57.0263         estimate D2E/DX2                !
 ! D266  D(76,75,78,81)        -62.3458         estimate D2E/DX2                !
 ! D267  D(77,75,78,79)         62.6084         estimate D2E/DX2                !
 ! D268  D(77,75,78,80)        -56.7327         estimate D2E/DX2                !
 ! D269  D(77,75,78,81)       -176.1048         estimate D2E/DX2                !
 ! D270  D(75,78,81,82)        -76.8071         estimate D2E/DX2                !
 ! D271  D(75,78,81,83)        164.3238         estimate D2E/DX2                !
 ! D272  D(75,78,81,84)         48.6724         estimate D2E/DX2                !
 ! D273  D(79,78,81,82)         47.2333         estimate D2E/DX2                !
 ! D274  D(79,78,81,83)        -71.6358         estimate D2E/DX2                !
 ! D275  D(79,78,81,84)        172.7128         estimate D2E/DX2                !
 ! D276  D(80,78,81,82)        162.427          estimate D2E/DX2                !
 ! D277  D(80,78,81,83)         43.5579         estimate D2E/DX2                !
 ! D278  D(80,78,81,84)        -72.0936         estimate D2E/DX2                !
 ! D279  D(78,81,83,41)       -173.68           estimate D2E/DX2                !
 ! D280  D(82,81,83,41)         62.2632         estimate D2E/DX2                !
 ! D281  D(84,81,83,41)        -52.0656         estimate D2E/DX2                !
 ! D282  D(78,81,84,35)        105.2194         estimate D2E/DX2                !
 ! D283  D(82,81,84,35)       -127.2682         estimate D2E/DX2                !
 ! D284  D(83,81,84,35)        -17.0188         estimate D2E/DX2                !
 --------------------------------------------------------------------------------
 Trust Radius=3.00D-01 FncErr=1.00D-07 GrdErr=1.00D-06
 Number of steps in this run=    504 maximum allowed number of steps=    504.
 GradGradGradGradGradGradGradGradGradGradGradGradGradGradGradGradGradGrad

 Leave Link  103 at Fri Apr  8 12:05:33 2016, MaxMem= 10737418240 cpu:         0.5
 (Enter /share/apps//g09/l202.exe)
 Stoichiometry    C23H44NO16(1+)
 Framework group  C1[X(C23H44NO16)]
 Deg. of freedom   246
 Full point group                 C1      NOp   1
 Largest Abelian subgroup         C1      NOp   1
 Largest concise Abelian subgroup C1      NOp   1
                         Standard orientation:                         
 ---------------------------------------------------------------------
 Center     Atomic      Atomic             Coordinates (Angstroms)
 Number     Number       Type             X           Y           Z
 ---------------------------------------------------------------------
      1          8           0       -4.559506   -0.373011   -1.085702
      2          6           0       -3.721826    0.647539   -0.590294
      3          6           0       -4.127844    1.034932    0.832856
      4          6           0       -4.043001   -0.180856    1.759112
      5          6           0       -4.912125   -1.311140    1.193636
      6          6           0       -4.540489   -1.579037   -0.277935
      7          1           0       -3.854532    1.492532   -1.286226
      8          1           0       -5.167594    1.399718    0.803949
      9          1           0       -2.994047   -0.511943    1.818562
     10          1           0       -4.698999   -2.240389    1.760363
     11          1           0       -3.520200   -2.004682   -0.304216
     12          8           0       -6.265857   -0.908410    1.403906
     13          8           0       -4.425644    0.193585    3.083281
     14          8           0       -3.257647    2.090874    1.288103
     15          8           0       -2.360018    0.242303   -0.524028
     16          6           0       -5.478443   -2.558293   -0.976552
     17          1           0       -5.118817   -2.739704   -2.001814
     18          1           0       -5.478793   -3.515671   -0.436974
     19          8           0       -6.845254   -2.108143   -0.989077
     20          1           0       -6.891161   -1.347432   -1.597616
     21          1           0       -6.809716   -1.329961    0.699397
     22          1           0       -5.403954    0.141946    3.102173
     23          1           0       -3.437892    2.178064    2.245262
     24          8           0        1.209912    1.543081   -2.035256
     25          6           0        0.829072    0.219609   -2.464679
     26          6           0       -0.330553   -0.319136   -1.598793
     27          6           0       -1.501575    0.667768   -1.581531
     28          6           0       -1.064913    2.133500   -1.336018
     29          6           0        0.133048    2.471407   -2.226359
     30          1           0        0.504431    0.254250   -3.521320
     31          1           0        0.018236   -0.428006   -0.553060
     32          1           0       -2.022425    0.592397   -2.554359
     33          1           0       -1.892047    2.804245   -1.636679
     34          1           0       -0.242339    2.380209   -3.267846
     35          8           0       -0.780705    2.360204    0.048545
     36          8           0       -0.816104   -1.540989   -2.114778
     37          8           0        1.971969   -0.596435   -2.500581
     38          6           0        0.700531    3.902883   -2.109977
     39          1           0        1.115498    4.197485   -3.085819
     40          1           0       -0.115323    4.597652   -1.867626
     41          8           0        1.700974    4.078430   -1.098040
     42          1           0        2.536077    3.735693   -1.461693
     43          1           0       -1.616811    2.170063    0.555595
     44          1           0       -0.132454   -2.217212   -1.912358
     45          8           0        5.032867   -1.271573   -0.621102
     46          6           0        4.552175   -1.914914    0.524066
     47          6           0        3.339688   -2.836322    0.231992
     48          6           0        2.648271   -2.469622   -1.089230
     49          6           0        2.623042   -0.951509   -1.267049
     50          6           0        4.087041   -0.467809   -1.388013
     51          1           0        5.395833   -2.514728    0.907203
     52          1           0        2.594701   -2.702990    1.031110
     53          1           0        3.219673   -2.896697   -1.936395
     54          1           0        4.378263   -0.633618   -2.438194
     55          1           0        2.118036   -0.475331   -0.412217
     56          8           0        1.317457   -2.996297   -1.097219
     57          8           0        3.662397   -4.225415    0.274873
     58          8           0        4.207407   -0.894109    1.483665
     59          6           0        4.290971    1.018480   -1.102432
     60          1           0        5.353358    1.259290   -1.267913
     61          1           0        3.678231    1.588635   -1.813665
     62          8           0        3.904205    1.424342    0.220266
     63          1           0        4.219887    0.711505    0.831761
     64          1           0        1.385582   -3.956657   -0.943175
     65          1           0        4.345972   -4.410620   -0.397034
     66          6           0        3.992099   -1.292818    2.855213
     67          1           0        3.460885   -2.259150    2.892196
     68          1           0        4.967493   -1.419394    3.353879
     69          6           0        3.166248   -0.193714    3.512364
     70          1           0        3.731848    0.749210    3.426722
     71          1           0        3.095726   -0.405959    4.590677
     72          6           0        1.759826   -0.058606    2.906304
     73          1           0        1.828293   -0.136690    1.808664
     74          1           0        1.148153   -0.918359    3.222587
     75          6           0        1.006888    1.226465    3.285000
     76          1           0       -0.038981    1.141312    2.946827
     77          1           0        0.960167    1.324574    4.381399
     78          6           0        1.590747    2.533742    2.743753
     79          1           0        2.615244    2.711427    3.098543
     80          1           0        0.976864    3.380536    3.077776
     81          7           0        1.622114    2.568169    1.247292
     82          1           0        2.403047    1.995181    0.829133
     83          1           0        1.765045    3.514729    0.859455
     84          1           0        0.699844    2.284562    0.814479
 ---------------------------------------------------------------------
 Rotational constants (GHZ):      0.1251225      0.0570607      0.0543274
 Leave Link  202 at Fri Apr  8 12:05:34 2016, MaxMem= 10737418240 cpu:         4.5
 (Enter /share/apps//g09/l301.exe)
 Standard basis: 6-311+G(d,p) (5D, 7F)
 Ernie: Thresh=  0.10000D-02 Tol=  0.10000D-05 Strict=F.
 There are  1184 symmetry adapted cartesian basis functions of A   symmetry.
 There are  1144 symmetry adapted basis functions of A   symmetry.
  1144 basis functions,  1792 primitive gaussians,  1184 cartesian basis functions
   158 alpha electrons      158 beta electrons
       nuclear repulsion energy      5810.6329076580 Hartrees.
 IExCor= 1009 DFT=T Ex+Corr=PBE1PBE ExCW=0 ScaHFX=  0.250000
 ScaDFX=  0.750000  0.750000  1.000000  1.000000 ScalE2=  1.000000  1.000000
 IRadAn=      0 IRanWt=     -1 IRanGd=            0 ICorTp=0 IEmpDi=131
 NAtoms=   84 NActive=   84 NUniq=   84 SFac= 1.00D+00 NAtFMM=   60 NAOKFM=T Big=T
 Integral buffers will be    131072 words long.
 Raffenetti 2 integral format.
 Two-electron integral symmetry is turned on.
 R6Disp:  Grimme-D3 Dispersion energy=       -0.0825774537 Hartrees.
 Nuclear repulsion after empirical dispersion term =     5810.5503302043 Hartrees.
 Leave Link  301 at Fri Apr  8 12:05:34 2016, MaxMem= 10737418240 cpu:         1.4
 (Enter /share/apps//g09/l302.exe)
 NPDir=0 NMtPBC=     1 NCelOv=     1 NCel=       1 NClECP=     1 NCelD=      1
         NCelK=      1 NCelE2=     1 NClLst=     1 CellRange=     0.0.
 One-electron integrals computed using PRISM.
 NBasis=  1144 RedAO= T EigKep=  1.18D-06  NBF=  1144
 NBsUse=  1143 1.00D-06 EigRej=  8.44D-07 NBFU=  1143
 Precomputing XC quadrature grid using
 IXCGrd= 4 IRadAn=           0 IRanWt=          -1 IRanGd=           0 AccXCQ= 0.00D+00.
 Generated NRdTot=       0 NPtTot=           0 NUsed=           0 NTot=          32
 NSgBfM=  1071  1071  1071  1071  1071 MxSgAt=    84 MxSgA2=    84.
 Leave Link  302 at Fri Apr  8 12:05:38 2016, MaxMem= 10737418240 cpu:        57.4
 (Enter /share/apps//g09/l303.exe)
 DipDrv:  MaxL=1.
 Leave Link  303 at Fri Apr  8 12:05:40 2016, MaxMem= 10737418240 cpu:        23.2
 (Enter /share/apps//g09/l401.exe)
 ExpMin= 4.38D-02 ExpMax= 8.59D+03 ExpMxC= 1.30D+03 IAcc=2 IRadAn=         4 AccDes= 0.00D+00
 Harris functional with IExCor= 1009 and IRadAn=       4 diagonalized for initial guess.
 HarFok:  IExCor= 1009 AccDes= 0.00D+00 IRadAn=         4 IDoV= 1 UseB2=F ITyADJ=14
 ICtDFT=  3500011 ScaDFX=  1.000000  1.000000  1.000000  1.000000
 FoFCou: FMM=F IPFlag=           0 FMFlag=      100000 FMFlg1=        2001
         NFxFlg=           0 DoJE=T BraDBF=F KetDBF=T FulRan=T
         wScrn=  0.000000 ICntrl=     500 IOpCl=  0 I1Cent=   200000004 NGrid=           0
         NMat0=    1 NMatS0=      1 NMatT0=    0 NMatD0=    1 NMtDS0=    0 NMtDT0=    0
 Petite list used in FoFCou.
 Harris En= -2159.70737824998    
 JPrj=0 DoOrth=F DoCkMO=F.
 Leave Link  401 at Fri Apr  8 12:05:47 2016, MaxMem= 10737418240 cpu:       126.9
 (Enter /share/apps//g09/l502.exe)
 Closed shell SCF:
 Using DIIS extrapolation, IDIIS=  1040.
 Integral symmetry usage will be decided dynamically.
 IVT=     4256630 IEndB=     4256630 NGot= 10737418240 MDV= 10734581291
 LenX= 10734581291 LenY= 10733178251
 Requested convergence on RMS density matrix=1.00D-08 within 128 cycles.
 Requested convergence on MAX density matrix=1.00D-06.
 Requested convergence on             energy=1.00D-06.
 No special actions if energy rises.
 Fock matrices will be formed incrementally for  20 cycles.

 Cycle   1  Pass 1  IDiag  1:
 FoFJK:  IHMeth= 1 ICntrl=       0 DoSepK=F KAlg= 0 I1Cent=   0 FoldK=F
 IRaf= 770000000 NMat=   1 IRICut=       1 DoRegI=T DoRafI=F ISym2E= 0.
 FoFCou: FMM=T IPFlag=           0 FMFlag=      100000 FMFlg1=        2001
         NFxFlg=           0 DoJE=F BraDBF=F KetDBF=F FulRan=T
         wScrn=  0.000000 ICntrl=       0 IOpCl=  0 I1Cent=           0 NGrid=           0
         NMat0=    1 NMatS0=      1 NMatT0=    0 NMatD0=    1 NMtDS0=    0 NMtDT0=    0
 Symmetry not used in FoFCou.
 FMM levels:  10  Number of levels for PrismC:   9
 E= -2158.68927048582    
 DIIS: error= 1.45D-02 at cycle   1 NSaved=   1.
 NSaved= 1 IEnMin= 1 EnMin= -2158.68927048582     IErMin= 1 ErrMin= 1.45D-02
 ErrMax= 1.45D-02  0.00D+00 EMaxC= 1.00D-01 BMatC= 1.02D+00 BMatP= 1.02D+00
 IDIUse=3 WtCom= 8.55D-01 WtEn= 1.45D-01
 Coeff-Com:  0.100D+01
 Coeff-En:   0.100D+01
 Coeff:      0.100D+01
 Gap=     0.255 Goal=   None    Shift=    0.000
 GapD=    0.255 DampG=1.000 DampE=0.500 DampFc=0.5000 IDamp=-1.
 Damping current iteration by 5.00D-01
 RMSDP=8.09D-03 MaxDP=1.66D+00              OVMax= 1.47D-01

 Cycle   2  Pass 1  IDiag  1:
 RMSU=  4.04D-03    CP:  9.97D-01
 E= -2158.97187037131     Delta-E=       -0.282599885499 Rises=F Damp=T
 DIIS: error= 2.85D-03 at cycle   2 NSaved=   2.
 NSaved= 2 IEnMin= 2 EnMin= -2158.97187037131     IErMin= 2 ErrMin= 2.85D-03
 ErrMax= 2.85D-03  0.00D+00 EMaxC= 1.00D-01 BMatC= 8.05D-02 BMatP= 1.02D+00
 IDIUse=3 WtCom= 9.72D-01 WtEn= 2.85D-02
 Coeff-Com:  0.588D-01 0.941D+00
 Coeff-En:   0.153D+00 0.847D+00
 Coeff:      0.615D-01 0.938D+00
 Gap=     0.283 Goal=   None    Shift=    0.000
 RMSDP=3.48D-03 MaxDP=9.58D-01 DE=-2.83D-01 OVMax= 8.47D-02

 Cycle   3  Pass 1  IDiag  1:
 RMSU=  2.30D-03    CP:  9.27D-01  9.07D-01
 E= -2159.33774373266     Delta-E=       -0.365873361346 Rises=F Damp=F
 DIIS: error= 3.12D-03 at cycle   3 NSaved=   3.
 NSaved= 3 IEnMin= 3 EnMin= -2159.33774373266     IErMin= 2 ErrMin= 2.85D-03
 ErrMax= 3.12D-03  0.00D+00 EMaxC= 1.00D-01 BMatC= 4.53D-02 BMatP= 8.05D-02
 IDIUse=3 WtCom= 9.69D-01 WtEn= 3.12D-02
 Coeff-Com: -0.675D-01 0.412D+00 0.656D+00
 Coeff-En:   0.000D+00 0.000D+00 0.100D+01
 Coeff:     -0.654D-01 0.399D+00 0.667D+00
 Gap=     0.267 Goal=   None    Shift=    0.000
 RMSDP=1.04D-03 MaxDP=1.62D-01 DE=-3.66D-01 OVMax= 1.55D-02

 Cycle   4  Pass 1  IDiag  1:
 RMSU=  9.14D-04    CP:  9.34D-01  9.58D-01  8.36D-01
 E= -2159.36635796972     Delta-E=       -0.028614237060 Rises=F Damp=F
 DIIS: error= 1.02D-03 at cycle   4 NSaved=   4.
 NSaved= 4 IEnMin= 4 EnMin= -2159.36635796972     IErMin= 4 ErrMin= 1.02D-03
 ErrMax= 1.02D-03  0.00D+00 EMaxC= 1.00D-01 BMatC= 5.71D-03 BMatP= 4.53D-02
 IDIUse=3 WtCom= 9.90D-01 WtEn= 1.02D-02
 Coeff-Com: -0.356D-01 0.123D+00 0.336D+00 0.577D+00
 Coeff-En:   0.000D+00 0.000D+00 0.677D-01 0.932D+00
 Coeff:     -0.353D-01 0.121D+00 0.333D+00 0.580D+00
 Gap=     0.260 Goal=   None    Shift=    0.000
 RMSDP=8.30D-04 MaxDP=2.64D-01 DE=-2.86D-02 OVMax= 5.55D-03

 Cycle   5  Pass 1  IDiag  1:
 RMSU=  2.97D-04    CP:  9.15D-01  9.40D-01  8.30D-01  6.67D-01
 E= -2159.37125031971     Delta-E=       -0.004892349991 Rises=F Damp=F
 DIIS: error= 2.90D-04 at cycle   5 NSaved=   5.
 NSaved= 5 IEnMin= 5 EnMin= -2159.37125031971     IErMin= 5 ErrMin= 2.90D-04
 ErrMax= 2.90D-04  0.00D+00 EMaxC= 1.00D-01 BMatC= 2.62D-04 BMatP= 5.71D-03
 IDIUse=3 WtCom= 9.97D-01 WtEn= 2.90D-03
 Coeff-Com: -0.113D-01 0.255D-01 0.101D+00 0.253D+00 0.632D+00
 Coeff-En:   0.000D+00 0.000D+00 0.000D+00 0.000D+00 0.100D+01
 Coeff:     -0.112D-01 0.254D-01 0.100D+00 0.252D+00 0.633D+00
 Gap=     0.260 Goal=   None    Shift=    0.000
 RMSDP=1.77D-04 MaxDP=3.98D-02 DE=-4.89D-03 OVMax= 1.37D-03

 Cycle   6  Pass 1  IDiag  1:
 RMSU=  7.46D-05    CP:  9.18D-01  9.52D-01  8.58D-01  6.60D-01  7.20D-01
 E= -2159.37144908882     Delta-E=       -0.000198769114 Rises=F Damp=F
 DIIS: error= 6.96D-05 at cycle   6 NSaved=   6.
 NSaved= 6 IEnMin= 6 EnMin= -2159.37144908882     IErMin= 6 ErrMin= 6.96D-05
 ErrMax= 6.96D-05  0.00D+00 EMaxC= 1.00D-01 BMatC= 2.00D-05 BMatP= 2.62D-04
 IDIUse=1 WtCom= 1.00D+00 WtEn= 0.00D+00
 Coeff-Com: -0.376D-02 0.655D-02 0.332D-01 0.972D-01 0.313D+00 0.554D+00
 Coeff:     -0.376D-02 0.655D-02 0.332D-01 0.972D-01 0.313D+00 0.554D+00
 Gap=     0.260 Goal=   None    Shift=    0.000
 RMSDP=3.33D-05 MaxDP=4.67D-03 DE=-1.99D-04 OVMax= 3.57D-04

 Cycle   7  Pass 1  IDiag  1:
 RMSU=  1.49D-05    CP:  9.18D-01  9.50D-01  8.55D-01  6.78D-01  7.33D-01
                    CP:  7.33D-01
 E= -2159.37146421261     Delta-E=       -0.000015123790 Rises=F Damp=F
 DIIS: error= 2.21D-05 at cycle   7 NSaved=   7.
 NSaved= 7 IEnMin= 7 EnMin= -2159.37146421261     IErMin= 7 ErrMin= 2.21D-05
 ErrMax= 2.21D-05  0.00D+00 EMaxC= 1.00D-01 BMatC= 1.44D-06 BMatP= 2.00D-05
 IDIUse=1 WtCom= 1.00D+00 WtEn= 0.00D+00
 Coeff-Com: -0.101D-02 0.139D-02 0.923D-02 0.305D-01 0.109D+00 0.271D+00
 Coeff-Com:  0.579D+00
 Coeff:     -0.101D-02 0.139D-02 0.923D-02 0.305D-01 0.109D+00 0.271D+00
 Coeff:      0.579D+00
 Gap=     0.260 Goal=   None    Shift=    0.000
[...]
 0008271,0.00001975,0.00002419,0.00000442,0.00001231,-0.00000045,0.0000
 3398,0.00011730,0.00017582,-0.00007570,-0.00001644,0.00004689,0.000056
 52,-0.00000610,-0.00000593,0.00000868,0.00000569,0.00000282,0.00000062
 ,-0.00000260,0.00000065,-0.00000675,-0.00000984,0.00002130,0.00001215,
 0.00001235,-0.00000668,-0.00000398,-0.00004903,-0.00005395,-0.00001421
 ,-0.00003181,-0.00004319,-0.00000108,-0.00008873,0.00001895,0.00005272
 ,0.00019225,0.00015592,-0.00026110,-0.00001241,-0.00004215,-0.00001142
 ,-0.00001589,0.00000068,0.00009611,-0.00039566,-0.00003396,0.00013692,
 0.00010381,-0.00003578,0.00000973,-0.00000065,0.00001132,-0.00000664,0
 .00001230,0.00001340,0.00000275,0.00000300,0.00000560,-0.00003205,-0.0
 0001216,0.00000967,0.00000348,-0.00000048,-0.00002051,-0.00000796,0.00
 011886,0.00001570,-0.00004707,-0.00000742,0.00002274,-0.00000760,0.000
 02392,0.00002616,0.00002309,-0.00018924,0.00022121,0.00011635,0.000027
 69,-0.00005082,-0.00019784,0.00002664,0.00001934,-0.00004858,-0.002277
 96,-0.00079868,0.00253217,0.00005707,0.00012307,0.00007956,0.00067691,
 -0.00051075,0.00057460,0.01046170,-0.01650966,0.00510405,-0.00032393,-
 0.00088138,-0.00005348,0.00101243,0.00021924,-0.00010348,-0.13457343,0
 .14011699,-0.05587493,-0.00025207,-0.00135042,0.00008238,0.14017384,0.
 00000355,-0.00004856,0.00003036,0.00000099,0.00003781,-0.00003888,0.00
 002179,-0.00000473,-0.00000295,0.00003681,0.00005829,0.00000693,0.0000
 2401,0.00000675,0.00000819,0.00000010,0.00004071,-0.00002067,-0.000008
 72,-0.00001526,0.00000799,-0.00001437,-0.00000200,-0.00000351,0.000009
 99,-0.00001256,-0.00001223,0.00000407,-0.00000791,0.00000426,0.0000006
 7,-0.00000332,-0.00000510,-0.00004166,-0.00002717,-0.00001042,-0.00003
 713,-0.00003717,0.00000548,-0.00005600,-0.00012484,-0.00002498,0.00003
 141,-0.00011858,0.00015018,0.00001401,0.00000739,0.00000820,-0.0000038
 6,0.00000113,0.00000068,0.00000353,-0.00000279,0.00000198,-0.00002020,
 -0.00001750,-0.00000097,0.00000522,0.00000926,-0.00000267,0.00001412,0
 .00000880,-0.00000659,0.00000372,0.00001059,0.00000802,0.00002910,0.00
 008886,0.00001931,0.00027246,-0.00074526,0.00011298,-0.00018945,0.0005
 3729,0.00012834,0.00011970,0.00008211,-0.00012051,-0.00012474,0.000076
 46,0.00000086,0.00017470,-0.00006146,-0.00070642,0.00012781,0.00077731
 ,-0.00013680,-0.00000809,-0.00004058,0.00001881,-0.00001646,-0.0000572
 1,0.00003772,-0.00004531,0.00000434,-0.00000168,-0.00020545,-0.0001122
 1,0.00006617,0.00010807,-0.00016857,0.00004327,-0.00160787,-0.00154641
 ,0.00044142,-0.00001310,-0.00012713,0.00005976,-0.00017961,-0.00040027
 ,-0.00003744,-0.00182707,-0.00127860,-0.00052253,0.00046802,0.00009196
 ,-0.00010326,-0.00013468,-0.00011001,0.00013509,0.00040157,-0.00265308
 ,0.00139470,0.00120595,0.00142764,-0.00106780,0.00001560,0.00013489,0.
 00003893,0.00004732,0.00007314,-0.00000278,-0.00009892,-0.00006088,0.0
 0008667,0.00019192,-0.00013517,-0.00027205,0.00004495,-0.00005239,-0.0
 0002514,0.00005996,-0.00001820,0.00003642,0.00019507,0.00019025,-0.000
 13858,-0.00004022,-0.00003215,0.00022180,-0.00001528,0.00002094,0.0000
 1388,0.00002149,-0.00000409,0.00001170,-0.00001090,0.00000725,0.000002
 31,-0.00006520,0.00007582,0.00002453,0.00003392,-0.00000725,0.00003133
 ,-0.00012819,-0.00002919,-0.00001530,-0.00008366,0.00005456,0.00003666
 ,-0.00018406,0.00026874,0.00016586,0.00037871,0.00032763,-0.00099887,-
 0.00001838,0.00001889,0.00010873,-0.00004639,-0.00001674,0.00008614,-0
 .00067221,0.00088715,0.00079323,0.00007859,-0.00022729,0.00029620,0.00
 002725,-0.00000152,-0.00001288,0.00002445,-0.00001252,-0.00001261,0.00
 000409,-0.00002254,-0.00009212,-0.00002637,0.00001883,0.00000376,0.000
 00880,0.00001801,0.00003309,0.00004324,-0.00001917,0.00008705,-0.00007
 703,-0.00002688,-0.00004574,-0.00001504,0.00001782,-0.00001618,-0.0000
 9427,0.00019791,-0.00015333,-0.00001556,-0.00005182,0.00005443,-0.0000
 5676,0.00012389,0.00005877,-0.00072818,0.00036840,0.00008003,-0.000017
 45,0.00006561,0.00007288,0.00024316,0.00018622,-0.00014731,0.00096180,
 -0.00525803,0.00288243,-0.00010970,-0.00052239,-0.00012136,0.00027847,
 0.00135991,-0.00095642,0.14143106,-0.29602731,0.09586967,0.01358786,-0
 .02068800,0.00832679,-0.15200203,0.31253184,0.00002101,-0.00000236,-0.
 00005859,0.00000121,0.00004822,0.00012009,-0.00019387,0.00006053,-0.00
 000359,-0.00000165,-0.00001726,0.00001703,-0.00002394,-0.00000854,0.00
 001084,0.00000083,-0.00000322,0.00002855,-0.00000232,0.00000470,0.0000
 0234,0.00002832,-0.00000386,-0.00000095,-0.00000957,0.00000562,0.00000
 516,0.00000528,-0.00000217,-0.00000052,-0.00000045,-0.00000306,0.00000
 510,0.00004433,0.00000181,-0.00000628,0.00005480,-0.00001622,-0.000019
 39,0.00026452,-0.00004852,0.00003292,-0.00005450,0.00006236,-0.0003159
 0,-0.00001086,0.00000205,0.00000302,0.00000698,0.00000075,-0.00000397,
 -0.00000189,0.00000127,0.00000093,0.00002078,0.00000064,-0.00001527,-0
 .00000984,-0.00000298,0.00000681,-0.00002187,-0.00000381,0.00001095,-0
 .00001569,0.00000616,-0.00000661,-0.00008939,0.00002345,-0.00004582,-0
 .00054173,0.00072616,-0.00023197,0.00034025,-0.00062820,-0.00002563,-0
 .00008744,-0.00006529,0.00017202,0.00021648,-0.00002519,-0.00001180,-0
 .00056000,-0.00025862,0.00106617,-0.00014150,-0.00061742,0.00029817,-0
 .00002317,0.00004057,-0.00002465,0.00000599,0.00006648,-0.00004053,0.0
 0008381,-0.00003148,0.00000129,0.00011964,0.00008418,-0.00004703,-0.00
 018877,0.00019597,-0.00008599,0.00150742,0.00038486,-0.00074493,-0.000
 03724,0.00009071,-0.00013553,0.00007083,0.00035791,-0.00003431,0.00296
 591,0.00154738,0.00161494,-0.00090517,-0.00037151,0.00014749,-0.000218
 75,-0.00018454,-0.00010825,-0.00376984,-0.00145983,-0.00307377,0.00100
 952,0.00000245,-0.00170088,-0.00015907,0.00016934,-0.00007575,-0.00001
 080,-0.00004255,0.00003105,0.00002198,0.00024599,-0.00016466,-0.000106
 65,0.00001237,0.00032907,-0.00002462,0.00000057,0.00002289,0.00000754,
 -0.00002192,-0.00002611,-0.00012411,-0.00010872,0.00022856,0.00006794,
 -0.00013128,-0.00003761,0.00001216,-0.00000545,-0.00002302,-0.00002195
 ,0.00000880,-0.00001646,0.00001167,-0.00001327,-0.00000833,0.00000710,
 -0.00001379,-0.00001951,-0.00004508,0.00002825,-0.00000765,0.00001512,
 0.00004432,-0.00003857,0.00003276,0.00000880,-0.00003013,0.00008938,-0
 .00001226,-0.00034397,-0.00055571,-0.00033769,0.00009266,0.00007632,-0
 .00003594,-0.00021005,0.00015177,0.00001772,-0.00008308,-0.00029966,0.
 00039646,-0.00257349,0.00009895,0.00011227,0.00057548,-0.00001126,-0.0
 0000580,0.00001450,-0.00000638,-0.00000721,0.00000687,-0.00003691,0.00
 001934,0.00019418,0.00001775,0.00000368,-0.00002383,0.00000124,-0.0000
 1224,-0.00003452,-0.00001152,0.00005990,0.00003856,0.00006288,0.000021
 92,0.00003987,-0.00004729,-0.00006240,-0.00001168,0.00062002,-0.000494
 96,-0.00016347,-0.00031724,0.00005092,0.00038641,-0.00007320,-0.000162
 62,0.00013487,0.00410847,0.00101926,-0.00429150,0.00017344,-0.00028673
 ,0.00023323,-0.00087828,0.00110120,-0.00055299,-0.01456296,0.02156717,
 -0.01017167,0.00012111,-0.00020347,0.00070827,-0.00067789,-0.00051899,
 0.00010729,-0.05647643,0.09611770,-0.09402006,0.01512193,-0.02258938,0
 .01450680,0.06010616,-0.10251086,0.10095302,0.00124874,-0.00075930,0.0
 0065913,-0.00204184,-0.00031894,-0.00166689,-0.00106620,0.00025125,-0.
 00006131,0.00027658,0.00035515,-0.00054225,-0.00019235,-0.00008093,-0.
 00009056,-0.00008332,0.00068697,-0.00037234,-0.00010075,-0.00014304,0.
 00007747,0.00018704,-0.00004784,0.00012280,0.00004069,0.00012284,-0.00
 009780,0.00007914,-0.00008391,0.00008188,-0.00006936,0.00000473,-0.000
 02447,0.00021910,-0.00006820,0.00030951,-0.00014392,-0.00036139,0.0007
 0566,0.00089416,-0.00006534,0.00291978,0.00177974,-0.00017680,0.000961
 58,-0.00023619,-0.00008784,-0.00003224,-0.00002275,0.00003292,-0.00000
 136,0.00005107,-0.00001965,0.00004276,0.00028985,0.00004690,0.00010332
 ,-0.00017029,-0.00002013,-0.00004017,-0.00011018,0.00002759,-0.0000921
 5,-0.00001802,0.00005812,-0.00015500,0.00077933,0.00015620,-0.00001003
 ,-0.00088552,-0.00152675,-0.00175768,-0.00021131,0.00209273,0.00177177
 ,-0.00039738,0.00062935,0.00060955,-0.00019451,0.00162538,-0.00135439,
 -0.00797817,-0.00120515,0.01262718,0.00085162,0.00044609,0.00234416,0.
 00000659,-0.00008947,-0.00005621,0.00023373,0.00025901,-0.00002298,0.0
 0068405,-0.00064930,0.00005112,0.00274541,0.00149484,-0.00184149,-0.00
 021710,0.00002192,-0.00083477,0.00552898,0.00203963,-0.00187360,0.0006
 4044,-0.00141961,-0.00062787,-0.00116778,-0.00183354,-0.00070648,0.003
 51198,0.00032091,0.00095997,-0.00085124,-0.00011491,-0.00009693,0.0000
 1739,-0.00037712,0.00002469,-0.00394754,-0.00280575,0.00164888,0.00057
 244,0.00045066,-0.00049987,0.00224199,0.00256491,-0.00860245,0.0003270
 4,0.00072732,0.00023320,-0.00054497,-0.00009255,0.00017977,0.00078253,
 -0.00043224,-0.00079105,0.00017737,-0.00003389,-0.00006617,0.00038725,
 -0.00006680,0.00029531,0.00079376,0.00099730,-0.00030364,0.00035963,-0
 .00011994,0.00045307,-0.00008125,0.00006286,0.00003807,0.00008827,0.00
 001043,0.00001317,-0.00003951,-0.00002869,-0.00004728,-0.00017171,0.00
 018317,0.00005091,0.00028161,0.00008809,0.00008556,-0.00070417,-0.0003
 8054,-0.00026440,-0.00035913,-0.00002294,0.00007269,-0.00073058,0.0007
 6516,0.00066338,0.00144664,0.00073209,-0.00207501,-0.00024805,0.000021
 66,0.00048670,0.00012500,-0.00012246,0.00019152,-0.00161886,0.00206511
 ,0.00505646,0.00019320,-0.00095364,0.00008317,0.00005787,0.00004883,-0
 .00005597,0.00011969,0.00001918,-0.00001510,0.00008202,-0.00007186,-0.
 00036882,-0.00009185,0.00008156,0.00002072,0.00000933,0.00004053,0.000
 09070,0.00006975,-0.00011854,0.00030503,-0.00032993,-0.00015014,-0.000
 20163,-0.00004878,0.00002454,-0.00001908,-0.00027188,-0.00031958,-0.00
 057008,0.00042838,-0.00018530,0.00021215,-0.00008088,0.00052464,-0.000
 09824,0.00329506,0.00003831,-0.00022125,-0.00030810,-0.00025853,-0.000
 15408,-0.00070574,0.00083988,-0.00051063,-0.00796883,-0.00478226,0.008
 31955,0.00179625,0.00144704,-0.00129904,-0.00000004,0.00051743,-0.0007
 3518,-0.28699182,-0.06450060,-0.04841478,0.00727095,-0.00314819,-0.006
 63703,-0.01489592,-0.00171950,-0.00633715,0.29532601,0.00047100,-0.000
 34815,0.00024563,-0.00077025,-0.00005496,-0.00054552,-0.00053694,0.000
 15540,-0.00002269,0.00016372,0.00024113,-0.00013562,-0.00005080,-0.000
 04208,-0.00001521,-0.00002716,0.00031190,-0.00013646,-0.00004828,-0.00
 008425,0.00003051,0.00008570,-0.00003157,0.00003936,0.00002676,0.00001
 347,-0.00003455,0.00004068,-0.00004393,0.00003521,-0.00001852,-0.00000
 904,-0.00001280,0.00004402,-0.00006028,0.00008940,-0.00006366,-0.00020
 035,0.00022911,0.00050196,-0.00024862,0.00117021,0.00065139,-0.0002805
 7,0.00025486,-0.00006953,-0.00002109,0.00000217,-0.00000906,0.00001391
 ,-0.00000220,0.00002280,-0.00000926,0.00001907,0.00008423,-0.00000510,
 0.00002676,-0.00005940,0.00000300,-0.00001492,-0.00003189,0.00001631,-
 0.00003679,-0.00001046,0.00003400,-0.00005293,0.00025709,0.00020385,-0
 .00000564,-0.00022624,-0.00166505,-0.00021190,-0.00001330,0.00085009,0
 .00048212,0.00051328,0.00065645,-0.00007718,0.00072259,0.00119813,-0.0
 0095348,-0.00226590,-0.00285285,0.00496272,0.00001574,0.00140221,0.001
 19165,-0.00005707,-0.00004270,0.00006077,-0.00013311,-0.00013852,0.000
 13611,0.00035736,-0.00046405,0.00002299,0.00038331,0.00025364,-0.00026
 592,-0.00005337,-0.00015287,-0.00038069,0.00247729,-0.00320201,-0.0003
 7389,-0.00009437,-0.00064904,-0.00008070,-0.00051417,-0.00086954,-0.00
 020230,-0.00006269,-0.00046208,0.00087956,-0.00010034,-0.00000739,-0.0
 0020060,0.00001849,-0.00035723,0.00010210,-0.00140216,-0.00099271,-0.0
 0110824,0.00043411,0.00069281,-0.00043056,0.00168129,0.00120533,-0.003
 48140,0.00017193,0.00024397,0.00003060,-0.00018427,-0.00012833,0.00019
 579,0.00032816,-0.00020680,-0.00051960,0.00007194,-0.00008399,-0.00007
 416,0.00016276,-0.00003649,0.00018402,0.00044870,0.00038352,-0.0004943
 0,0.00005857,0.00003511,0.00007068,-0.00003171,0.00003599,0.00002978,0
 .00005075,-0.00001752,0.00002603,-0.00004296,0.00003606,-0.00000532,-0
 .00002331,0.00004612,0.00005319,0.00014166,-0.00017012,0.00003492,-0.0
 0031624,-0.00012951,-0.00006905,-0.00015362,0.00006895,0.00007049,-0.0
 0025190,0.00033899,0.00050823,0.00053534,0.00006049,-0.00089251,-0.000
 06070,0.00000529,0.00016786,-0.00000713,-0.00002809,0.00008377,0.00027
 593,0.00043599,0.00091276,-0.00007706,-0.00021561,-0.00001579,0.000049
 60,0.00000677,-0.00002461,0.00004531,-0.00000811,-0.00001769,0.0001290
 8,-0.00008425,-0.00022492,-0.00003661,-0.00000546,-0.00000769,0.000003
 54,0.00005425,0.00009248,-0.00011713,0.00009368,-0.00022548,-0.0000066
 5,0.00002868,0.00000783,0.00010454,0.00009805,0.00003370,-0.00040793,-
 0.00028351,0.00036315,0.00037665,-0.00065523,-0.00051828,0.00009911,0.
 00030838,-0.00018277,-0.00039805,-0.00033467,-0.00049050,0.00032916,0.
 00025116,0.00047842,0.00016365,0.00049434,-0.00024977,-0.01072710,-0.0
 0477780,0.00062787,-0.00039983,0.00005326,0.00128280,0.00104179,0.0002
 8406,-0.00058737,-0.07080427,-0.08073074,-0.01566758,-0.02203410,-0.00
 649784,-0.00426733,0.03231837,0.01072229,0.00661141,0.06683990,0.08635
 231,0.00022645,-0.00014173,0.00003192,-0.00028689,0.00003222,-0.000084
 93,-0.00044325,0.00014748,-0.00000782,0.00003000,0.00001819,-0.0000818
 5,-0.00007450,-0.00001606,0.00000545,-0.00000880,0.00011996,-0.0000139
 8,-0.00001907,-0.00002671,0.00000590,0.00007895,-0.00001277,0.00001161
 ,-0.00001818,0.00004066,0.00000103,0.00002254,-0.00001895,0.00001472,-
 0.00001212,-0.00000531,0.00000515,0.00010440,-0.00001047,0.00004259,0.
 00005533,-0.00007079,0.00010399,0.00064565,0.00000680,0.00014033,0.000
 09860,0.00002475,-0.00020804,-0.00004814,-0.00000728,-0.00000009,0.000
 00776,0.00000803,-0.00000573,0.00000621,-0.00000195,0.00000945,0.00007
 059,0.00000232,-0.00000629,-0.00003957,-0.00000452,0.00000093,-0.00004
 686,0.00000053,0.00000018,-0.00001823,0.00001391,-0.00004033,-0.000097
 98,-0.00002417,-0.00020537,-0.00097584,-0.00031718,-0.00017499,0.00082
 170,-0.00087829,0.00014612,0.00017602,0.00019295,0.00020155,0.00057715
 ,0.00059627,-0.00040744,0.00040039,0.00047574,0.00484652,0.00116244,0.
 00124973,0.00047572,-0.00019310,0.00010751,0.00001081,-0.00008960,0.00
 000016,0.00006207,0.00023566,-0.00027033,0.00000202,0.00084283,0.00033
 730,-0.00065075,-0.00026121,-0.00007286,-0.00014197,0.00322805,0.00199
 467,-0.01491173,-0.00015198,-0.00014929,-0.00023019,-0.00013065,0.0001
 7216,-0.00007952,0.00188801,0.00130526,-0.00047191,-0.00035182,-0.0001
 0173,0.00008084,-0.00004198,-0.00015657,-0.00001308,-0.00024033,-0.001
 95186,0.00121682,-0.00046298,0.00019616,-0.00073569,-0.00355538,-0.001
 75600,-0.00003145,0.00006418,0.00003997,0.00004823,-0.00001138,0.00016
 170,-0.00005128,0.00000879,-0.00006379,0.00007295,-0.00001300,-0.00004
 653,0.00000944,0.00009437,-0.00003776,0.00011140,0.00003741,-0.0000423
 2,-0.00009776,0.00006291,-0.00011101,-0.00011015,-0.00000022,0.0000102
 2,-0.00000589,0.00000198,0.00000389,-0.00000356,-0.00001792,0.00002200
 ,-0.00001106,0.00001893,-0.00001259,0.00000582,0.00007286,-0.00013776,
 0.00005798,-0.00011228,0.00000029,-0.00007787,-0.00001852,0.00005584,-
 0.00000589,-0.00000201,0.00008610,-0.00009792,-0.00003143,-0.00038532,
 -0.00014082,0.00001263,0.00002913,0.00001096,0.00001618,0.00001896,-0.
 00007985,0.00084507,0.00007649,-0.00088414,0.00003006,-0.00015643,0.00
 017097,0.00001059,-0.00000633,0.00001092,0.00000677,-0.00001402,-0.000
 00290,-0.00016645,-0.00006326,0.00002241,-0.00001745,0.00003392,0.0000
 1836,0.00001705,-0.00002249,-0.00003766,0.00027291,-0.00012895,-0.0000
 3485,-0.00009301,-0.00000752,-0.00011229,0.00003108,0.00000061,0.00000
 810,-0.00059023,0.00016303,0.00014957,0.00015839,-0.00006700,-0.000098
 45,-0.00001213,0.00008976,-0.00001101,0.00119792,0.00002044,0.00225927
 ,-0.00127670,0.00002545,-0.00100503,-0.00031658,-0.00053309,-0.0000033
 8,0.02980248,0.00864209,0.00939969,0.00248716,0.00199051,-0.00551226,0
 .00051466,-0.00041752,-0.00003673,-0.04729038,-0.01364267,-0.07482125,
 -0.02597250,-0.00432573,-0.00331830,-0.01070703,-0.00376706,-0.0024771
 1,0.04777456,0.01147085,0.08776878\\0.00000797,0.00000249,-0.00000368,
 -0.00001159,0.00000403,-0.00000608,-0.00000818,-0.00000413,0.00001859,
 0.00000840,0.00000659,-0.00000607,-0.00000163,-0.00000180,-0.00000275,
 -0.00000364,-0.00000162,0.00000402,-0.00000119,0.00000175,0.00000251,-
 0.00000080,0.00000115,0.00000037,-0.00000138,-0.00000045,-0.00000046,-
 0.00000114,-0.00000060,-0.00000022,0.00000104,0.00000099,-0.00000004,-
 0.00001307,-0.00000007,0.00001149,-0.00000772,-0.00000443,0.00000210,0
 .00002029,-0.00000979,-0.00001161,0.00000033,-0.00000098,0.00000201,-0
 .00000347,-0.00000439,-0.00000320,0.00000025,0.00000458,0.00000129,0.0
 0000045,0.00000095,-0.00000075,0.00000289,0.00000511,0.00000465,-0.000
 00005,0.00000493,-0.00000155,0.00000829,0.00000331,-0.00000517,0.00000
 409,-0.00000028,0.00000111,-0.00000788,-0.00000056,-0.00000206,-0.0000
 0473,-0.00000209,-0.00000306,-0.00000130,0.00001881,0.00001110,-0.0000
 0216,0.00000426,0.00000130,-0.00000042,-0.00000156,0.00000473,0.000006
 09,0.00000332,0.00000113,0.00000184,0.00000116,0.00000835,-0.00000249,
 0.00000090,-0.00000103,0.00000045,0.00000042,-0.00000183,-0.00000157,0
 .00000411,0.00000028,-0.00000265,0.00000009,0.00000179,-0.00000240,0.0
 0000451,0.00000044,0.00000167,-0.00000279,0.00001931,-0.00001085,-0.00
 000306,0.00001422,0.00000012,-0.00001741,-0.00000595,0.00000365,0.0000
 0168,-0.00000131,-0.00000097,-0.00000366,0.00000081,-0.00000386,0.0000
 0199,0.00000093,-0.00001153,-0.00000642,0.00000989,0.00000070,0.000006
 78,-0.00000776,-0.00001216,0.00000400,0.00000244,0.00003134,0.00001223
 ,-0.00002082,-0.00000017,0.00001848,-0.00002179,-0.00000164,-0.0000119
 3,0.00003325,0.00000721,0.00000306,-0.00000895,0.00000014,-0.00000190,
 -0.00000258,0.00000380,0.00001382,-0.00000032,-0.00000560,-0.00001548,
 0.00000103,0.00000293,0.00000016,-0.00000450,0.00000107,-0.00000043,-0
 .00000070,0.00000181,0.00000153,-0.00000189,0.00000370,0.00000235,-0.0
 0000103,0.00000163,-0.00000008,-0.00000096,-0.00001806,-0.00000389,0.0
 0000903,0.00000235,0.,0.00000100,0.00001015,-0.00000412,-0.00001379,0.
 00000058,0.00000115,-0.00002239,-0.00000124,0.00000032,0.00000142,-0.0
 0000018,-0.00000063,0.00000351,0.00001024,0.00001334,0.00001389,-0.000
 00281,-0.00000593,0.00000275,0.00000588,0.00000168,-0.00000180,0.00000
 254,0.00000193,-0.00000543,0.00000108,-0.00000328,0.00000040,0.0000033
 2,-0.00000139,-0.00000123,0.00000318,-0.00000250,-0.00000363,-0.000001
 38,-0.00000073,-0.00000128,0.00000063,-0.00000103,-0.00000051,0.000002
 38,-0.00000355,-0.00000109,-0.00000040,-0.00000005,0.00000092,0.000001
 48,-0.00000243,0.00000086,0.00000221,-0.00000224,-0.00000027,0.0000041
 6,-0.00000436,-0.00000235,0.00000027,-0.00000243,0.,-0.00000124,-0.000
 00306,-0.00000055,-0.00000315,-0.00000309,0.00000264,-0.00000009,-0.00
 000400,-0.00000030,0.00000015,-0.00000236,-0.00000006,-0.00001052,0.00
 000100,0.00003207,-0.00000272,-0.00000465,-0.00000191,0.00000741,-0.00
 000385,0.00000011,-0.00001212,-0.00000347,-0.00004300\\\@


 THE ENLIGHTENED ONE, BECAUSE HE SAW MANKIND DROWNING  
 IN THE GREAT SEA OF BIRTH, DEATH, AND SORROW, LONGED TO SAVE 
 THEM, FOR THIS HE WAS MOVED TO PITY.                         
 BECAUSE HE SAW MEN OF THE WORLD STRAYING IN FALSE PATHS, AND 
 NONE TO GUIDE THEM, FOR THIS HE WAS MOVED TO PITY.           
                     ..................                       
 BECAUSE HE SAW THE MEN OF THE WORLD PLOUGHING THEIR FIELDS,  
 SOWING THE SEED, TRAFFICKING, HUCKSTERING, BUYING, SELLING,  
 AND AT THE END WINNOWING NOTHING BUT BITTERNESS,             
 FOR THIS HE WAS MOVED TO PITY......                   
                   BUDAH'S PITY - UPSAKA SILA SUTRA           
 Job cpu time:      19 days  3 hours 59 minutes 33.2 seconds.
 File lengths (MBytes):  RWF=  17371 Int=      0 D2E=      0 Chk=     98 Scr=      1
 Normal termination of Gaussian 09 at Sun Apr 10 15:10:27 2016.
