 Entering Gaussian System, Link 0=g09
 Initial command:
 /share/apps//g09/l1.exe "/scratch/Gau-43025.inp" -scrdir="/scratch/"
 Entering Link 1 = /share/apps//g09/l1.exe PID=     43026.
  
 Copyright (c) 1988,1990,1992,1993,1995,1998,2003,2009,2013,
            Gaussian, Inc.  All Rights Reserved.
  
 This is part of the Gaussian(R) 09 program.  It is based on
 the Gaussian(R) 03 system (copyright 2003, Gaussian, Inc.),
 the Gaussian(R) 98 system (copyright 1998, Gaussian, Inc.),
 the Gaussian(R) 94 system (copyright 1995, Gaussian, Inc.),
 the Gaussian 92(TM) system (copyright 1992, Gaussian, Inc.),
 the Gaussian 90(TM) system (copyright 1990, Gaussian, Inc.),
 the Gaussian 88(TM) system (copyright 1988, Gaussian, Inc.),
 the Gaussian 86(TM) system (copyright 1986, Carnegie Mellon
 University), and the Gaussian 82(TM) system (copyright 1983,
 Carnegie Mellon University). Gaussian is a federally registered
 trademark of Gaussian, Inc.
  
 This software contains proprietary and confidential information,
 including trade secrets, belonging to Gaussian, Inc.
  
 This software is provided under written license and may be
 used, copied, transmitted, or stored only in accord with that
 written license.
  
 The following legend is applicable only to US Government
 contracts under FAR:
  
                    RESTRICTED RIGHTS LEGEND
  
 Use, reproduction and disclosure by the US Government is
 subject to restrictions as set forth in subparagraphs (a)
 and (c) of the Commercial Computer Software - Restricted
 Rights clause in FAR 52.227-19.
  
 Gaussian, Inc.
 340 Quinnipiac St., Bldg. 40, Wallingford CT 06492
  
  
 ---------------------------------------------------------------
 Warning -- This program may not be used in any manner that
 competes with the business of Gaussian, Inc. or will provide
 assistance to any competitor of Gaussian, Inc.  The licensee
 of this program is prohibited from giving any competitor of
 Gaussian, Inc. access to this program.  By using this program,
 the user acknowledges that Gaussian, Inc. is engaged in the
 business of creating and licensing software in the field of
 computational chemistry and represents and warrants to the
 licensee that it is not a competitor of Gaussian, Inc. and that
 it will not use this program in any manner prohibited above.
 ---------------------------------------------------------------
  

 Cite this work as:
 Gaussian 09, Revision D.01,
 M. J. Frisch, G. W. Trucks, H. B. Schlegel, G. E. Scuseria, 
 M. A. Robb, J. R. Cheeseman, G. Scalmani, V. Barone, B. Mennucci, 
 G. A. Petersson, H. Nakatsuji, M. Caricato, X. Li, H. P. Hratchian, 
 A. F. Izmaylov, J. Bloino, G. Zheng, J. L. Sonnenberg, M. Hada, 
 M. Ehara, K. Toyota, R. Fukuda, J. Hasegawa, M. Ishida, T. Nakajima, 
 Y. Honda, O. Kitao, H. Nakai, T. Vreven, J. A. Montgomery, Jr., 
 J. E. Peralta, F. Ogliaro, M. Bearpark, J. J. Heyd, E. Brothers, 
 K. N. Kudin, V. N. Staroverov, T. Keith, R. Kobayashi, J. Normand, 
 K. Raghavachari, A. Rendell, J. C. Burant, S. S. Iyengar, J. Tomasi, 
 M. Cossi, N. Rega, J. M. Millam, M. Klene, J. E. Knox, J. B. Cross, 
 V. Bakken, C. Adamo, J. Jaramillo, R. Gomperts, R. E. Stratmann, 
 O. Yazyev, A. J. Austin, R. Cammi, C. Pomelli, J. W. Ochterski, 
 R. L. Martin, K. Morokuma, V. G. Zakrzewski, G. A. Voth, 
 P. Salvador, J. J. Dannenberg, S. Dapprich, A. D. Daniels, 
 O. Farkas, J. B. Foresman, J. V. Ortiz, J. Cioslowski, 
 and D. J. Fox, Gaussian, Inc., Wallingford CT, 2013.
 
 ******************************************
 Gaussian 09:  EM64L-G09RevD.01 24-Apr-2013
                24-Mar-2016 
 ******************************************
 %nproc=20
 Will use up to   20 processors via shared memory.
 %mem=80GB
 %chk=Tri_A154_of.chk
 -------------------------------------------------------------------
 #P PBE1PBE/6-311+G(d,p) opt optcyc=999 freq EmpiricalDispersion=GD3
 -------------------------------------------------------------------
 1/6=999,14=-1,18=20,19=15,26=3,38=1/1,3;
 2/9=110,12=2,17=6,18=5,40=1/2;
 3/5=4,6=6,7=111,11=2,16=1,25=1,30=1,71=1,74=-13,124=31/1,2,3;
 4//1;
 5/5=2,38=5/2;
 6/7=2,8=2,9=2,10=2,28=1/1;
 7//1,2,3,16;
 1/6=999,14=-1,18=20,19=15,26=3/3(2);
 2/9=110/2;
 99//99;
 2/9=110/2;
 3/5=4,6=6,7=111,11=2,16=1,25=1,30=1,71=1,74=-13,124=31/1,2,3;
 4/5=5,16=3,69=1/1;
 5/5=2,38=5/2;
 7//1,2,3,16;
 1/6=999,14=-1,18=20,19=15,26=3/3(-5);
 2/9=110/2;
 6/7=2,8=2,9=2,10=2,19=2,28=1/1;
 99/9=1/99;
 Leave Link    1 at Thu Mar 24 14:33:47 2016, MaxMem= 10737418240 cpu:         2.0
 (Enter /share/apps//g09/l101.exe)
 -------
 disacch
 -------
 Symbolic Z-matrix:
 Charge =  1 Multiplicity = 1
 O                    -3.13473  -1.36988  -0.80542 
 C                    -2.15018  -2.33655  -1.0715 
 C                    -1.6092   -2.94122   0.21434 
 C                    -2.72788  -3.45625   1.09533 
 C                    -3.77833  -2.37953   1.31453 
 C                    -4.22223  -1.83397  -0.03101 
 C                    -5.23091  -0.6912    0.00633 
 O                    -4.62921   0.56044   0.22876 
 O                    -3.25477  -1.37156   2.16786 
 O                    -2.24915  -3.82342   2.36725 
 O                    -0.7456   -4.00808  -0.04422 
 O                    -1.10043  -1.67154  -1.67395 
 C                    -0.77194  -1.89202  -3.0319 
 C                     0.70317  -2.22756  -3.08969 
 O                     0.93654  -3.41574  -2.3676 
 C                     1.50254  -1.08652  -2.48682 
 C                     1.0991    0.28728  -3.03899 
 O                    -0.31237   0.44333  -3.11125 
 C                    -0.97636  -0.60165  -3.81052 
 C                    -2.42223  -0.18906  -3.9682 
 O                    -2.55983   0.97165  -4.73995 
 O                     1.60025   1.34881  -2.29712 
 C                     1.36371   1.35808  -0.90397 
 C                     2.68887   1.36092  -0.16764 
 C                     2.46101   1.48045   1.32408 
 C                     1.56285   2.65782   1.65908 
 O                     0.35942   2.55951   0.9111 
 C                     0.57554   2.6035   -0.49143 
 C                    -0.76883   2.72958  -1.17387 
 O                    -1.60587   1.60451  -0.97867 
 O                     1.28312   2.57302   3.0003 
 C                     0.81453   3.75218   3.65137 
 C                    -0.69129   3.90025   3.56139 
 C                    -1.4286    2.70467   4.15539 
 C                    -2.85912   2.52741   3.65849 
 C                    -2.9844    2.33937   2.1594 
 N                    -2.18898   1.18355   1.67024 
 O                     3.72596   1.59148   1.91741 
 O                     3.39724   0.1733   -0.44513 
 O                     2.85675  -1.33781  -2.72317 
 H                    -2.55115  -3.12499  -1.72724 
 H                    -1.09575  -2.12604   0.74515 
 H                    -3.19914  -4.3135    0.59726 
 H                    -4.65304  -2.83241   1.79552 
 H                    -4.70868  -2.68058  -0.53943 
 H                    -5.94475  -0.85796   0.81319 
 H                    -5.78663  -0.68367  -0.93612 
 H                    -4.09061   0.76107  -0.54095 
 H                    -2.78958  -1.85506   2.86223 
 H                    -1.48989  -4.40002   2.24863 
 H                    -0.09727  -3.7551   -0.72007 
 H                    -1.36624  -2.70934  -3.45097 
 H                     0.99136  -2.36175  -4.13933 
 H                     1.88785  -3.55442  -2.34168 
 H                     1.29137  -1.11704  -1.41535 
 H                     1.52683   0.40829  -4.03974 
 H                    -0.53558  -0.70544  -4.81056 
 H                    -2.95505  -0.98279  -4.4954 
 H                    -2.88243  -0.08164  -2.97888 
 H                    -2.03689   1.66819  -4.33925 
 H                     0.77729   0.48874  -0.59483 
 H                     3.26827   2.22795  -0.51219 
 H                     1.94129   0.57461   1.66727 
 H                     2.05896   3.61116   1.4156 
 H                     1.15839   3.49871  -0.75256 
 H                    -1.28874   3.59721  -0.76597 
 H                    -0.60295   2.89854  -2.23897 
 H                    -1.29592   0.90857  -1.58233 
 H                     1.31954   4.62618   3.22875 
 H                     1.13093   3.65018   4.69071 
 H                    -0.95314   4.04074   2.51186 
 H                    -0.97974   4.81882   4.07926 
 H                    -1.44563   2.78881   5.24415 
 H                    -0.84975   1.79662   3.95589 
 H                    -3.45904   3.4023    3.92097 
 H                    -3.32126   1.67851   4.16991 
 H                    -4.01301   2.15586   1.86049 
 H                    -2.62605   3.21528   1.6205 
 H                    -2.64618   0.27586   1.86926 
 H                    -1.25397   1.20837   2.07189 
 H                    -2.04231   1.24653   0.64226 
 H                     3.62418   1.58042   2.8714 
 H                     4.17524   0.16487   0.11996 
 H                     3.35171  -0.8362   -2.06089 
 
 NAtoms=     84 NQM=       84 NQMF=       0 NMMI=      0 NMMIF=      0
                NMic=       0 NMicF=      0.
                    Isotopes and Nuclear Properties:
 (Nuclear quadrupole moments (NQMom) in fm**2, nuclear magnetic moments (NMagM)
  in nuclear magnetons)

  Atom         1           2           3           4           5           6           7           8           9          10
 IAtWgt=          16          12          12          12          12          12          12          16          16          16
 AtmWgt=  15.9949146  12.0000000  12.0000000  12.0000000  12.0000000  12.0000000  12.0000000  15.9949146  15.9949146  15.9949146
 NucSpn=           0           0           0           0           0           0           0           0           0           0
 AtZEff=   0.0000000   0.0000000   0.0000000   0.0000000   0.0000000   0.0000000   0.0000000   0.0000000   0.0000000   0.0000000
 NQMom=    0.0000000   0.0000000   0.0000000   0.0000000   0.0000000   0.0000000   0.0000000   0.0000000   0.0000000   0.0000000
 NMagM=    0.0000000   0.0000000   0.0000000   0.0000000   0.0000000   0.0000000   0.0000000   0.0000000   0.0000000   0.0000000
 AtZNuc=   8.0000000   6.0000000   6.0000000   6.0000000   6.0000000   6.0000000   6.0000000   8.0000000   8.0000000   8.0000000

  Atom        11          12          13          14          15          16          17          18          19          20
 IAtWgt=          16          16          12          12          16          12          12          16          12          12
 AtmWgt=  15.9949146  15.9949146  12.0000000  12.0000000  15.9949146  12.0000000  12.0000000  15.9949146  12.0000000  12.0000000
 NucSpn=           0           0           0           0           0           0           0           0           0           0
 AtZEff=   0.0000000   0.0000000   0.0000000   0.0000000   0.0000000   0.0000000   0.0000000   0.0000000   0.0000000   0.0000000
 NQMom=    0.0000000   0.0000000   0.0000000   0.0000000   0.0000000   0.0000000   0.0000000   0.0000000   0.0000000   0.0000000
 NMagM=    0.0000000   0.0000000   0.0000000   0.0000000   0.0000000   0.0000000   0.0000000   0.0000000   0.0000000   0.0000000
 AtZNuc=   8.0000000   8.0000000   6.0000000   6.0000000   8.0000000   6.0000000   6.0000000   8.0000000   6.0000000   6.0000000

  Atom        21          22          23          24          25          26          27          28          29          30
 IAtWgt=          16          16          12          12          12          12          16          12          12          16
 AtmWgt=  15.9949146  15.9949146  12.0000000  12.0000000  12.0000000  12.0000000  15.9949146  12.0000000  12.0000000  15.9949146
 NucSpn=           0           0           0           0           0           0           0           0           0           0
 AtZEff=   0.0000000   0.0000000   0.0000000   0.0000000   0.0000000   0.0000000   0.0000000   0.0000000   0.0000000   0.0000000
 NQMom=    0.0000000   0.0000000   0.0000000   0.0000000   0.0000000   0.0000000   0.0000000   0.0000000   0.0000000   0.0000000
 NMagM=    0.0000000   0.0000000   0.0000000   0.0000000   0.0000000   0.0000000   0.0000000   0.0000000   0.0000000   0.0000000
 AtZNuc=   8.0000000   8.0000000   6.0000000   6.0000000   6.0000000   6.0000000   8.0000000   6.0000000   6.0000000   8.0000000

  Atom        31          32          33          34          35          36          37          38          39          40
 IAtWgt=          16          12          12          12          12          12          14          16          16          16
 AtmWgt=  15.9949146  12.0000000  12.0000000  12.0000000  12.0000000  12.0000000  14.0030740  15.9949146  15.9949146  15.9949146
 NucSpn=           0           0           0           0           0           0           2           0           0           0
 AtZEff=   0.0000000   0.0000000   0.0000000   0.0000000   0.0000000   0.0000000   0.0000000   0.0000000   0.0000000   0.0000000
 NQMom=    0.0000000   0.0000000   0.0000000   0.0000000   0.0000000   0.0000000   2.0440000   0.0000000   0.0000000   0.0000000
 NMagM=    0.0000000   0.0000000   0.0000000   0.0000000   0.0000000   0.0000000   0.4037610   0.0000000   0.0000000   0.0000000
 AtZNuc=   8.0000000   6.0000000   6.0000000   6.0000000   6.0000000   6.0000000   7.0000000   8.0000000   8.0000000   8.0000000

  Atom        41          42          43          44          45          46          47          48          49          50
 IAtWgt=           1           1           1           1           1           1           1           1           1           1
 AtmWgt=   1.0078250   1.0078250   1.0078250   1.0078250   1.0078250   1.0078250   1.0078250   1.0078250   1.0078250   1.0078250
 NucSpn=           1           1           1           1           1           1           1           1           1           1
 AtZEff=   0.0000000   0.0000000   0.0000000   0.0000000   0.0000000   0.0000000   0.0000000   0.0000000   0.0000000   0.0000000
 NQMom=    0.0000000   0.0000000   0.0000000   0.0000000   0.0000000   0.0000000   0.0000000   0.0000000   0.0000000   0.0000000
 NMagM=    2.7928460   2.7928460   2.7928460   2.7928460   2.7928460   2.7928460   2.7928460   2.7928460   2.7928460   2.7928460
 AtZNuc=   1.0000000   1.0000000   1.0000000   1.0000000   1.0000000   1.0000000   1.0000000   1.0000000   1.0000000   1.0000000

  Atom        51          52          53          54          55          56          57          58          59          60
 IAtWgt=           1           1           1           1           1           1           1           1           1           1
 AtmWgt=   1.0078250   1.0078250   1.0078250   1.0078250   1.0078250   1.0078250   1.0078250   1.0078250   1.0078250   1.0078250
 NucSpn=           1           1           1           1           1           1           1           1           1           1
 AtZEff=   0.0000000   0.0000000   0.0000000   0.0000000   0.0000000   0.0000000   0.0000000   0.0000000   0.0000000   0.0000000
 NQMom=    0.0000000   0.0000000   0.0000000   0.0000000   0.0000000   0.0000000   0.0000000   0.0000000   0.0000000   0.0000000
 NMagM=    2.7928460   2.7928460   2.7928460   2.7928460   2.7928460   2.7928460   2.7928460   2.7928460   2.7928460   2.7928460
 AtZNuc=   1.0000000   1.0000000   1.0000000   1.0000000   1.0000000   1.0000000   1.0000000   1.0000000   1.0000000   1.0000000

  Atom        61          62          63          64          65          66          67          68          69          70
 IAtWgt=           1           1           1           1           1           1           1           1           1           1
 AtmWgt=   1.0078250   1.0078250   1.0078250   1.0078250   1.0078250   1.0078250   1.0078250   1.0078250   1.0078250   1.0078250
 NucSpn=           1           1           1           1           1           1           1           1           1           1
 AtZEff=   0.0000000   0.0000000   0.0000000   0.0000000   0.0000000   0.0000000   0.0000000   0.0000000   0.0000000   0.0000000
 NQMom=    0.0000000   0.0000000   0.0000000   0.0000000   0.0000000   0.0000000   0.0000000   0.0000000   0.0000000   0.0000000
 NMagM=    2.7928460   2.7928460   2.7928460   2.7928460   2.7928460   2.7928460   2.7928460   2.7928460   2.7928460   2.7928460
 AtZNuc=   1.0000000   1.0000000   1.0000000   1.0000000   1.0000000   1.0000000   1.0000000   1.0000000   1.0000000   1.0000000

  Atom        71          72          73          74          75          76          77          78          79          80
 IAtWgt=           1           1           1           1           1           1           1           1           1           1
 AtmWgt=   1.0078250   1.0078250   1.0078250   1.0078250   1.0078250   1.0078250   1.0078250   1.0078250   1.0078250   1.0078250
 NucSpn=           1           1           1           1           1           1           1           1           1           1
 AtZEff=   0.0000000   0.0000000   0.0000000   0.0000000   0.0000000   0.0000000   0.0000000   0.0000000   0.0000000   0.0000000
 NQMom=    0.0000000   0.0000000   0.0000000   0.0000000   0.0000000   0.0000000   0.0000000   0.0000000   0.0000000   0.0000000
 NMagM=    2.7928460   2.7928460   2.7928460   2.7928460   2.7928460   2.7928460   2.7928460   2.7928460   2.7928460   2.7928460
 AtZNuc=   1.0000000   1.0000000   1.0000000   1.0000000   1.0000000   1.0000000   1.0000000   1.0000000   1.0000000   1.0000000

  Atom        81          82          83          84
 IAtWgt=           1           1           1           1
 AtmWgt=   1.0078250   1.0078250   1.0078250   1.0078250
 NucSpn=           1           1           1           1
 AtZEff=   0.0000000   0.0000000   0.0000000   0.0000000
 NQMom=    0.0000000   0.0000000   0.0000000   0.0000000
 NMagM=    2.7928460   2.7928460   2.7928460   2.7928460
 AtZNuc=   1.0000000   1.0000000   1.0000000   1.0000000
 Leave Link  101 at Thu Mar 24 14:33:48 2016, MaxMem= 10737418240 cpu:         5.2
 (Enter /share/apps//g09/l103.exe)

 GradGradGradGradGradGradGradGradGradGradGradGradGradGradGradGradGradGrad
 Berny optimization.
 Initialization pass.
                           ----------------------------
                           !    Initial Parameters    !
                           ! (Angstroms and Degrees)  !
 --------------------------                            --------------------------
 ! Name  Definition              Value          Derivative Info.                !
 --------------------------------------------------------------------------------
 ! R1    R(1,2)                  1.4052         estimate D2E/DX2                !
 ! R2    R(1,6)                  1.4134         estimate D2E/DX2                !
 ! R3    R(2,3)                  1.5204         estimate D2E/DX2                !
 ! R4    R(2,12)                 1.381          estimate D2E/DX2                !
 ! R5    R(2,41)                 1.1011         estimate D2E/DX2                !
 ! R6    R(3,4)                  1.5142         estimate D2E/DX2                !
 ! R7    R(3,11)                 1.3967         estimate D2E/DX2                !
 ! R8    R(3,42)                 1.1            estimate D2E/DX2                !
 ! R9    R(4,5)                  1.5201         estimate D2E/DX2                !
 ! R10   R(4,10)                 1.4078         estimate D2E/DX2                !
 ! R11   R(4,43)                 1.0977         estimate D2E/DX2                !
 ! R12   R(5,6)                  1.5183         estimate D2E/DX2                !
 ! R13   R(5,9)                  1.4207         estimate D2E/DX2                !
 ! R14   R(5,44)                 1.0962         estimate D2E/DX2                !
 ! R15   R(6,7)                  1.5247         estimate D2E/DX2                !
 ! R16   R(6,45)                 1.1009         estimate D2E/DX2                !
 ! R17   R(7,8)                  1.4065         estimate D2E/DX2                !
 ! R18   R(7,46)                 1.0901         estimate D2E/DX2                !
 ! R19   R(7,47)                 1.0941         estimate D2E/DX2                !
 ! R20   R(8,48)                 0.9606         estimate D2E/DX2                !
 ! R21   R(9,49)                 0.9656         estimate D2E/DX2                !
 ! R22   R(10,50)                0.9607         estimate D2E/DX2                !
 ! R23   R(11,51)                0.9701         estimate D2E/DX2                !
 ! R24   R(12,13)                1.4144         estimate D2E/DX2                !
 ! R25   R(13,14)                1.5139         estimate D2E/DX2                !
 ! R26   R(13,19)                1.5209         estimate D2E/DX2                !
 ! R27   R(13,52)                1.094          estimate D2E/DX2                !
 ! R28   R(14,15)                1.4098         estimate D2E/DX2                !
 ! R29   R(14,16)                1.518          estimate D2E/DX2                !
 ! R30   R(14,53)                1.0967         estimate D2E/DX2                !
 ! R31   R(15,54)                0.9617         estimate D2E/DX2                !
 ! R32   R(16,17)                1.5346         estimate D2E/DX2                !
 ! R33   R(16,40)                1.3975         estimate D2E/DX2                !
 ! R34   R(16,55)                1.0925         estimate D2E/DX2                !
 ! R35   R(17,18)                1.4219         estimate D2E/DX2                !
 ! R36   R(17,22)                1.3887         estimate D2E/DX2                !
 ! R37   R(17,56)                1.095          estimate D2E/DX2                !
 ! R38   R(18,19)                1.4219         estimate D2E/DX2                !
 ! R39   R(19,20)                1.5118         estimate D2E/DX2                !
 ! R40   R(19,57)                1.0978         estimate D2E/DX2                !
 ! R41   R(20,21)                1.4006         estimate D2E/DX2                !
 ! R42   R(20,58)                1.0917         estimate D2E/DX2                !
 ! R43   R(20,59)                1.0964         estimate D2E/DX2                !
 ! R44   R(21,60)                0.9587         estimate D2E/DX2                !
 ! R45   R(22,23)                1.4131         estimate D2E/DX2                !
 ! R46   R(23,24)                1.516          estimate D2E/DX2                !
 ! R47   R(23,28)                1.5305         estimate D2E/DX2                !
 ! R48   R(23,61)                1.0933         estimate D2E/DX2                !
 ! R49   R(24,25)                1.5137         estimate D2E/DX2                !
 ! R50   R(24,39)                1.4104         estimate D2E/DX2                !
 ! R51   R(24,62)                1.0983         estimate D2E/DX2                !
 ! R52   R(25,26)                1.5183         estimate D2E/DX2                !
 ! R53   R(25,38)                1.4016         estimate D2E/DX2                !
 ! R54   R(25,63)                1.0993         estimate D2E/DX2                !
 ! R55   R(26,27)                1.4203         estimate D2E/DX2                !
 ! R56   R(26,31)                1.3727         estimate D2E/DX2                !
 ! R57   R(26,64)                1.1019         estimate D2E/DX2                !
 ! R58   R(27,28)                1.4198         estimate D2E/DX2                !
 ! R59   R(28,29)                1.5129         estimate D2E/DX2                !
 ! R60   R(28,65)                1.0997         estimate D2E/DX2                !
 ! R61   R(29,30)                1.4158         estimate D2E/DX2                !
 ! R62   R(29,66)                1.0906         estimate D2E/DX2                !
 ! R63   R(29,67)                1.0911         estimate D2E/DX2                !
 ! R64   R(30,68)                0.972          estimate D2E/DX2                !
 ! R65   R(31,32)                1.4261         estimate D2E/DX2                !
 ! R66   R(32,33)                1.5158         estimate D2E/DX2                !
 ! R67   R(32,69)                1.0943         estimate D2E/DX2                !
 ! R68   R(32,70)                1.0912         estimate D2E/DX2                !
 ! R69   R(33,34)                1.5251         estimate D2E/DX2                !
 ! R70   R(33,71)                1.0908         estimate D2E/DX2                !
 ! R71   R(33,72)                1.0932         estimate D2E/DX2                !
 ! R72   R(34,35)                1.5247         estimate D2E/DX2                !
 ! R73   R(34,73)                1.0921         estimate D2E/DX2                !
 ! R74   R(34,74)                1.0952         estimate D2E/DX2                !
 ! R75   R(35,36)                1.516          estimate D2E/DX2                !
 ! R76   R(35,75)                1.0928         estimate D2E/DX2                !
 ! R77   R(35,76)                1.0935         estimate D2E/DX2                !
 ! R78   R(36,37)                1.4859         estimate D2E/DX2                !
 ! R79   R(36,77)                1.0868         estimate D2E/DX2                !
 ! R80   R(36,78)                1.0891         estimate D2E/DX2                !
 ! R81   R(37,79)                1.0356         estimate D2E/DX2                !
 ! R82   R(37,80)                1.0179         estimate D2E/DX2                !
 ! R83   R(37,81)                1.0403         estimate D2E/DX2                !
 ! R84   R(38,82)                0.9595         estimate D2E/DX2                !
 ! R85   R(39,83)                0.9616         estimate D2E/DX2                !
 ! R86   R(40,84)                0.9671         estimate D2E/DX2                !
 ! A1    A(2,1,6)              114.6426         estimate D2E/DX2                !
 ! A2    A(1,2,3)              111.2689         estimate D2E/DX2                !
 ! A3    A(1,2,12)             106.4948         estimate D2E/DX2                !
 ! A4    A(1,2,41)             110.5002         estimate D2E/DX2                !
 ! A5    A(3,2,12)             106.8568         estimate D2E/DX2                !
 ! A6    A(3,2,41)             110.3925         estimate D2E/DX2                !
 ! A7    A(12,2,41)            111.212          estimate D2E/DX2                !
 ! A8    A(2,3,4)              111.3738         estimate D2E/DX2                !
 ! A9    A(2,3,11)             111.544          estimate D2E/DX2                !
 ! A10   A(2,3,42)             106.2287         estimate D2E/DX2                !
 ! A11   A(4,3,11)             107.7399         estimate D2E/DX2                !
 ! A12   A(4,3,42)             108.431          estimate D2E/DX2                !
 ! A13   A(11,3,42)            111.5177         estimate D2E/DX2                !
 ! A14   A(3,4,5)              110.7014         estimate D2E/DX2                !
 ! A15   A(3,4,10)             111.2938         estimate D2E/DX2                !
 ! A16   A(3,4,43)             108.59           estimate D2E/DX2                !
 ! A17   A(5,4,10)             106.825          estimate D2E/DX2                !
 ! A18   A(5,4,43)             108.7778         estimate D2E/DX2                !
 ! A19   A(10,4,43)            110.6252         estimate D2E/DX2                !
 ! A20   A(4,5,6)              109.1934         estimate D2E/DX2                !
 ! A21   A(4,5,9)              109.5418         estimate D2E/DX2                !
 ! A22   A(4,5,44)             108.7873         estimate D2E/DX2                !
 ! A23   A(6,5,9)              112.6512         estimate D2E/DX2                !
 ! A24   A(6,5,44)             107.6995         estimate D2E/DX2                !
 ! A25   A(9,5,44)             108.8837         estimate D2E/DX2                !
 ! A26   A(1,6,5)              112.2467         estimate D2E/DX2                !
 ! A27   A(1,6,7)              106.0413         estimate D2E/DX2                !
 ! A28   A(1,6,45)             109.8442         estimate D2E/DX2                !
 ! A29   A(5,6,7)              116.1697         estimate D2E/DX2                !
 ! A30   A(5,6,45)             105.1977         estimate D2E/DX2                !
 ! A31   A(7,6,45)             107.1804         estimate D2E/DX2                !
 ! A32   A(6,7,8)              112.8207         estimate D2E/DX2                !
 ! A33   A(6,7,46)             109.6741         estimate D2E/DX2                !
 ! A34   A(6,7,47)             108.6676         estimate D2E/DX2                !
 ! A35   A(8,7,46)             107.4107         estimate D2E/DX2                !
 ! A36   A(8,7,47)             110.328          estimate D2E/DX2                !
 ! A37   A(46,7,47)            107.8187         estimate D2E/DX2                !
 ! A38   A(7,8,48)             107.3982         estimate D2E/DX2                !
 ! A39   A(5,9,49)             104.7274         estimate D2E/DX2                !
 ! A40   A(4,10,50)            108.2842         estimate D2E/DX2                !
 ! A41   A(3,11,51)            110.0596         estimate D2E/DX2                !
 ! A42   A(2,12,13)            121.3527         estimate D2E/DX2                !
 ! A43   A(12,13,14)           107.3072         estimate D2E/DX2                !
 ! A44   A(12,13,19)           109.1502         estimate D2E/DX2                !
 ! A45   A(12,13,52)           110.9816         estimate D2E/DX2                !
 ! A46   A(14,13,19)           107.4257         estimate D2E/DX2                !
 ! A47   A(14,13,52)           110.433          estimate D2E/DX2                !
 ! A48   A(19,13,52)           111.3913         estimate D2E/DX2                !
 ! A49   A(13,14,15)           109.1796         estimate D2E/DX2                !
 ! A50   A(13,14,16)           109.3498         estimate D2E/DX2                !
 ! A51   A(13,14,53)           108.6444         estimate D2E/DX2                !
 ! A52   A(15,14,16)           110.0542         estimate D2E/DX2                !
 ! A53   A(15,14,53)           110.0948         estimate D2E/DX2                !
 ! A54   A(16,14,53)           109.4927         estimate D2E/DX2                !
 ! A55   A(14,15,54)           107.4019         estimate D2E/DX2                !
 ! A56   A(14,16,17)           113.0519         estimate D2E/DX2                !
 ! A57   A(14,16,40)           107.9361         estimate D2E/DX2                !
 ! A58   A(14,16,55)           105.4687         estimate D2E/DX2                !
 ! A59   A(17,16,40)           110.7863         estimate D2E/DX2                !
 ! A60   A(17,16,55)           109.0916         estimate D2E/DX2                !
 ! A61   A(40,16,55)           110.3745         estimate D2E/DX2                !
 ! A62   A(16,17,18)           112.1789         estimate D2E/DX2                !
 ! A63   A(16,17,22)           113.4051         estimate D2E/DX2                !
 ! A64   A(16,17,56)           108.97           estimate D2E/DX2                !
 ! A65   A(18,17,22)           107.5474         estimate D2E/DX2                !
 ! A66   A(18,17,56)           109.2184         estimate D2E/DX2                !
 ! A67   A(22,17,56)           105.236          estimate D2E/DX2                !
 ! A68   A(17,18,19)           114.0716         estimate D2E/DX2                !
 ! A69   A(13,19,18)           107.9984         estimate D2E/DX2                !
 ! A70   A(13,19,20)           114.4238         estimate D2E/DX2                !
 ! A71   A(13,19,57)           109.4014         estimate D2E/DX2                !
 ! A72   A(18,19,20)           107.2969         estimate D2E/DX2                !
 ! A73   A(18,19,57)           109.2674         estimate D2E/DX2                !
 ! A74   A(20,19,57)           108.3481         estimate D2E/DX2                !
 ! A75   A(19,20,21)           112.184          estimate D2E/DX2                !
 ! A76   A(19,20,58)           108.5851         estimate D2E/DX2                !
 ! A77   A(19,20,59)           109.515          estimate D2E/DX2                !
 ! A78   A(21,20,58)           106.7667         estimate D2E/DX2                !
 ! A79   A(21,20,59)           112.0096         estimate D2E/DX2                !
 ! A80   A(58,20,59)           107.5853         estimate D2E/DX2                !
 ! A81   A(20,21,60)           108.5536         estimate D2E/DX2                !
 ! A82   A(17,22,23)           118.1182         estimate D2E/DX2                !
 ! A83   A(22,23,24)           109.4229         estimate D2E/DX2                !
 ! A84   A(22,23,28)           110.9328         estimate D2E/DX2                !
 ! A85   A(22,23,61)           111.3058         estimate D2E/DX2                !
 ! A86   A(24,23,28)           108.524          estimate D2E/DX2                !
 ! A87   A(24,23,61)           109.4523         estimate D2E/DX2                !
 ! A88   A(28,23,61)           107.1344         estimate D2E/DX2                !
 ! A89   A(23,24,25)           110.3167         estimate D2E/DX2                !
 ! A90   A(23,24,39)           109.9918         estimate D2E/DX2                !
 ! A91   A(23,24,62)           108.0746         estimate D2E/DX2                !
 ! A92   A(25,24,39)           109.6318         estimate D2E/DX2                !
 ! A93   A(25,24,62)           109.0404         estimate D2E/DX2                !
 ! A94   A(39,24,62)           109.7594         estimate D2E/DX2                !
 ! A95   A(24,25,26)           111.5749         estimate D2E/DX2                !
 ! A96   A(24,25,38)           106.7124         estimate D2E/DX2                !
 ! A97   A(24,25,63)           108.2853         estimate D2E/DX2                !
 ! A98   A(26,25,38)           112.2756         estimate D2E/DX2                !
 ! A99   A(26,25,63)           106.8844         estimate D2E/DX2                !
 ! A100  A(38,25,63)           111.0882         estimate D2E/DX2                !
 ! A101  A(25,26,27)           109.351          estimate D2E/DX2                !
 ! A102  A(25,26,31)           106.7521         estimate D2E/DX2                !
 ! A103  A(25,26,64)           110.8432         estimate D2E/DX2                !
 ! A104  A(27,26,31)           109.7311         estimate D2E/DX2                !
 ! A105  A(27,26,64)           108.9644         estimate D2E/DX2                !
 ! A106  A(31,26,64)           111.1665         estimate D2E/DX2                !
 ! A107  A(26,27,28)           112.8989         estimate D2E/DX2                !
 ! A108  A(23,28,27)           108.6296         estimate D2E/DX2                !
 ! A109  A(23,28,29)           113.8175         estimate D2E/DX2                !
 ! A110  A(23,28,65)           108.9944         estimate D2E/DX2                !
 ! A111  A(27,28,29)           108.235          estimate D2E/DX2                !
 ! A112  A(27,28,65)           109.9061         estimate D2E/DX2                !
 ! A113  A(29,28,65)           107.2184         estimate D2E/DX2                !
 ! A114  A(28,29,30)           113.3863         estimate D2E/DX2                !
 ! A115  A(28,29,66)           108.7348         estimate D2E/DX2                !
 ! A116  A(28,29,67)           108.5502         estimate D2E/DX2                !
 ! A117  A(30,29,66)           107.3837         estimate D2E/DX2                !
 ! A118  A(30,29,67)           110.3357         estimate D2E/DX2                !
 ! A119  A(66,29,67)           108.3231         estimate D2E/DX2                !
 ! A120  A(29,30,68)           107.1458         estimate D2E/DX2                !
 ! A121  A(26,31,32)           117.5119         estimate D2E/DX2                !
 ! A122  A(31,32,33)           112.339          estimate D2E/DX2                !
 ! A123  A(31,32,69)           109.4156         estimate D2E/DX2                !
 ! A124  A(31,32,70)           105.2047         estimate D2E/DX2                !
 ! A125  A(33,32,69)           110.9477         estimate D2E/DX2                !
 ! A126  A(33,32,70)           110.7153         estimate D2E/DX2                !
 ! A127  A(69,32,70)           107.98           estimate D2E/DX2                !
 ! A128  A(32,33,34)           112.3699         estimate D2E/DX2                !
 ! A129  A(32,33,71)           107.9497         estimate D2E/DX2                !
 ! A130  A(32,33,72)           108.426          estimate D2E/DX2                !
 ! A131  A(34,33,71)           111.0799         estimate D2E/DX2                !
 ! A132  A(34,33,72)           110.2815         estimate D2E/DX2                !
 ! A133  A(71,33,72)           106.5128         estimate D2E/DX2                !
 ! A134  A(33,34,35)           114.6957         estimate D2E/DX2                !
 ! A135  A(33,34,73)           109.5984         estimate D2E/DX2                !
 ! A136  A(33,34,74)           108.8758         estimate D2E/DX2                !
 ! A137  A(35,34,73)           108.6156         estimate D2E/DX2                !
 ! A138  A(35,34,74)           109.885          estimate D2E/DX2                !
 ! A139  A(73,34,74)           104.6976         estimate D2E/DX2                !
 ! A140  A(34,35,36)           114.4697         estimate D2E/DX2                !
 ! A141  A(34,35,75)           110.1029         estimate D2E/DX2                !
 ! A142  A(34,35,76)           109.533          estimate D2E/DX2                !
 ! A143  A(36,35,75)           106.9443         estimate D2E/DX2                !
 ! A144  A(36,35,76)           109.3447         estimate D2E/DX2                !
 ! A145  A(75,35,76)           106.091          estimate D2E/DX2                !
 ! A146  A(35,36,37)           112.1956         estimate D2E/DX2                !
 ! A147  A(35,36,77)           111.7855         estimate D2E/DX2                !
 ! A148  A(35,36,78)           111.2448         estimate D2E/DX2                !
 ! A149  A(37,36,77)           106.5453         estimate D2E/DX2                !
 ! A150  A(37,36,78)           106.6532         estimate D2E/DX2                !
 ! A151  A(77,36,78)           108.1283         estimate D2E/DX2                !
 ! A152  A(36,37,79)           112.4684         estimate D2E/DX2                !
 ! A153  A(36,37,80)           110.0503         estimate D2E/DX2                !
 ! A154  A(36,37,81)           110.7128         estimate D2E/DX2                !
 ! A155  A(79,37,80)           110.5516         estimate D2E/DX2                !
 ! A156  A(79,37,81)           107.7701         estimate D2E/DX2                !
 ! A157  A(80,37,81)           105.0062         estimate D2E/DX2                !
 ! A158  A(25,38,82)           108.9206         estimate D2E/DX2                !
 ! A159  A(24,39,83)           107.3444         estimate D2E/DX2                !
 ! A160  A(16,40,84)           106.6713         estimate D2E/DX2                !
 ! D1    D(6,1,2,3)            -56.1803         estimate D2E/DX2                !
 ! D2    D(6,1,2,12)          -172.2712         estimate D2E/DX2                !
 ! D3    D(6,1,2,41)            66.8264         estimate D2E/DX2                !
 ! D4    D(2,1,6,5)             58.2981         estimate D2E/DX2                !
 ! D5    D(2,1,6,7)           -173.8649         estimate D2E/DX2                !
 ! D6    D(2,1,6,45)           -58.3645         estimate D2E/DX2                !
 ! D7    D(1,2,3,4)             52.6882         estimate D2E/DX2                !
 ! D8    D(1,2,3,11)           173.1051         estimate D2E/DX2                !
 ! D9    D(1,2,3,42)           -65.1851         estimate D2E/DX2                !
 ! D10   D(12,2,3,4)           168.5566         estimate D2E/DX2                !
 ! D11   D(12,2,3,11)          -71.0265         estimate D2E/DX2                !
 ! D12   D(12,2,3,42)           50.6833         estimate D2E/DX2                !
 ! D13   D(41,2,3,4)           -70.3802         estimate D2E/DX2                !
 ! D14   D(41,2,3,11)           50.0367         estimate D2E/DX2                !
 ! D15   D(41,2,3,42)          171.7465         estimate D2E/DX2                !
 ! D16   D(1,2,12,13)         -111.795          estimate D2E/DX2                !
 ! D17   D(3,2,12,13)          129.191          estimate D2E/DX2                !
 ! D18   D(41,2,12,13)           8.6501         estimate D2E/DX2                !
 ! D19   D(2,3,4,5)            -52.1546         estimate D2E/DX2                !
 ! D20   D(2,3,4,10)          -170.8            estimate D2E/DX2                !
 ! D21   D(2,3,4,43)            67.1968         estimate D2E/DX2                !
 ! D22   D(11,3,4,5)          -174.7855         estimate D2E/DX2                !
 ! D23   D(11,3,4,10)           66.5691         estimate D2E/DX2                !
 ! D24   D(11,3,4,43)          -55.4342         estimate D2E/DX2                !
 ! D25   D(42,3,4,5)            64.3818         estimate D2E/DX2                !
 ! D26   D(42,3,4,10)          -54.2637         estimate D2E/DX2                !
 ! D27   D(42,3,4,43)         -176.2669         estimate D2E/DX2                !
 ! D28   D(2,3,11,51)           48.3137         estimate D2E/DX2                !
 ! D29   D(4,3,11,51)          170.8399         estimate D2E/DX2                !
 ! D30   D(42,3,11,51)         -70.2823         estimate D2E/DX2                !
 ! D31   D(3,4,5,6)             52.4795         estimate D2E/DX2                !
 ! D32   D(3,4,5,9)            -71.3187         estimate D2E/DX2                !
 ! D33   D(3,4,5,44)           169.767          estimate D2E/DX2                !
 ! D34   D(10,4,5,6)           173.8017         estimate D2E/DX2                !
 ! D35   D(10,4,5,9)            50.0035         estimate D2E/DX2                !
 ! D36   D(10,4,5,44)          -68.9108         estimate D2E/DX2                !
 ! D37   D(43,4,5,6)           -66.7586         estimate D2E/DX2                !
 ! D38   D(43,4,5,9)           169.4432         estimate D2E/DX2                !
 ! D39   D(43,4,5,44)           50.5289         estimate D2E/DX2                !
 ! D40   D(3,4,10,50)          -50.2683         estimate D2E/DX2                !
 ! D41   D(5,4,10,50)         -171.2141         estimate D2E/DX2                !
 ! D42   D(43,4,10,50)          70.5475         estimate D2E/DX2                !
 ! D43   D(4,5,6,1)            -54.903          estimate D2E/DX2                !
 ! D44   D(4,5,6,7)           -177.156          estimate D2E/DX2                !
 ! D45   D(4,5,6,45)            64.5148         estimate D2E/DX2                !
 ! D46   D(9,5,6,1)             67.0385         estimate D2E/DX2                !
 ! D47   D(9,5,6,7)            -55.2145         estimate D2E/DX2                !
 ! D48   D(9,5,6,45)          -173.5437         estimate D2E/DX2                !
 ! D49   D(44,5,6,1)          -172.8754         estimate D2E/DX2                !
 ! D50   D(44,5,6,7)            64.8715         estimate D2E/DX2                !
 ! D51   D(44,5,6,45)          -53.4577         estimate D2E/DX2                !
 ! D52   D(4,5,9,49)           -42.7826         estimate D2E/DX2                !
 ! D53   D(6,5,9,49)          -164.5269         estimate D2E/DX2                !
 ! D54   D(44,5,9,49)           76.0721         estimate D2E/DX2                !
 ! D55   D(1,6,7,8)            -43.5628         estimate D2E/DX2                !
 ! D56   D(1,6,7,46)          -163.2461         estimate D2E/DX2                !
 ! D57   D(1,6,7,47)            79.1201         estimate D2E/DX2                !
 ! D58   D(5,6,7,8)             81.9031         estimate D2E/DX2                !
 ! D59   D(5,6,7,46)           -37.7801         estimate D2E/DX2                !
 ! D60   D(5,6,7,47)          -155.414          estimate D2E/DX2                !
 ! D61   D(45,6,7,8)          -160.8603         estimate D2E/DX2                !
 ! D62   D(45,6,7,46)           79.4565         estimate D2E/DX2                !
 ! D63   D(45,6,7,47)          -38.1774         estimate D2E/DX2                !
 ! D64   D(6,7,8,48)            66.5529         estimate D2E/DX2                !
 ! D65   D(46,7,8,48)         -172.4662         estimate D2E/DX2                !
 ! D66   D(47,7,8,48)          -55.1969         estimate D2E/DX2                !
 ! D67   D(2,12,13,14)        -127.4528         estimate D2E/DX2                !
 ! D68   D(2,12,13,19)         116.4271         estimate D2E/DX2                !
 ! D69   D(2,12,13,52)          -6.7134         estimate D2E/DX2                !
 ! D70   D(12,13,14,15)         62.2647         estimate D2E/DX2                !
 ! D71   D(12,13,14,16)        -58.1961         estimate D2E/DX2                !
 ! D72   D(12,13,14,53)       -177.6509         estimate D2E/DX2                !
 ! D73   D(19,13,14,15)        179.5186         estimate D2E/DX2                !
 ! D74   D(19,13,14,16)         59.0579         estimate D2E/DX2                !
 ! D75   D(19,13,14,53)        -60.397          estimate D2E/DX2                !
 ! D76   D(52,13,14,15)        -58.821          estimate D2E/DX2                !
 ! D77   D(52,13,14,16)       -179.2818         estimate D2E/DX2                !
 ! D78   D(52,13,14,53)         61.2634         estimate D2E/DX2                !
 ! D79   D(12,13,19,18)         49.8234         estimate D2E/DX2                !
 ! D80   D(12,13,19,20)        -69.5754         estimate D2E/DX2                !
 ! D81   D(12,13,19,57)        168.6568         estimate D2E/DX2                !
 ! D82   D(14,13,19,18)        -66.221          estimate D2E/DX2                !
 ! D83   D(14,13,19,20)        174.3802         estimate D2E/DX2                !
 ! D84   D(14,13,19,57)         52.6124         estimate D2E/DX2                !
 ! D85   D(52,13,19,18)        172.7195         estimate D2E/DX2                !
 ! D86   D(52,13,19,20)         53.3207         estimate D2E/DX2                !
 ! D87   D(52,13,19,57)        -68.447          estimate D2E/DX2                !
 ! D88   D(13,14,15,54)       -174.1167         estimate D2E/DX2                !
 ! D89   D(16,14,15,54)        -54.0885         estimate D2E/DX2                !
 ! D90   D(53,14,15,54)         66.6952         estimate D2E/DX2                !
 ! D91   D(13,14,16,17)        -48.9117         estimate D2E/DX2                !
 ! D92   D(13,14,16,40)       -171.8083         estimate D2E/DX2                !
 ! D93   D(13,14,16,55)         70.2048         estimate D2E/DX2                !
 ! D94   D(15,14,16,17)       -168.8367         estimate D2E/DX2                !
 ! D95   D(15,14,16,40)         68.2667         estimate D2E/DX2                !
 ! D96   D(15,14,16,55)        -49.7202         estimate D2E/DX2                !
 ! D97   D(53,14,16,17)         70.0184         estimate D2E/DX2                !
 ! D98   D(53,14,16,40)        -52.8782         estimate D2E/DX2                !
 ! D99   D(53,14,16,55)       -170.8651         estimate D2E/DX2                !
 ! D100  D(14,16,17,18)         44.4533         estimate D2E/DX2                !
 ! D101  D(14,16,17,22)        166.542          estimate D2E/DX2                !
 ! D102  D(14,16,17,56)        -76.6122         estimate D2E/DX2                !
 ! D103  D(40,16,17,18)        165.753          estimate D2E/DX2                !
 ! D104  D(40,16,17,22)        -72.1583         estimate D2E/DX2                !
 ! D105  D(40,16,17,56)         44.6874         estimate D2E/DX2                !
 ! D106  D(55,16,17,18)        -72.5483         estimate D2E/DX2                !
 ! D107  D(55,16,17,22)         49.5404         estimate D2E/DX2                !
 ! D108  D(55,16,17,56)        166.3861         estimate D2E/DX2                !
 ! D109  D(14,16,40,84)       -157.6633         estimate D2E/DX2                !
 ! D110  D(17,16,40,84)         78.0669         estimate D2E/DX2                !
 ! D111  D(55,16,40,84)        -42.8755         estimate D2E/DX2                !
 ! D112  D(16,17,18,19)        -52.7158         estimate D2E/DX2                !
 ! D113  D(22,17,18,19)       -178.0828         estimate D2E/DX2                !
 ! D114  D(56,17,18,19)         68.2066         estimate D2E/DX2                !
 ! D115  D(16,17,22,23)        -52.56           estimate D2E/DX2                !
 ! D116  D(18,17,22,23)         72.0711         estimate D2E/DX2                !
 ! D117  D(56,17,22,23)       -171.5735         estimate D2E/DX2                !
 ! D118  D(17,18,19,13)         64.1526         estimate D2E/DX2                !
 ! D119  D(17,18,19,20)       -172.0317         estimate D2E/DX2                !
 ! D120  D(17,18,19,57)        -54.7661         estimate D2E/DX2                !
 ! D121  D(13,19,20,21)       -177.4315         estimate D2E/DX2                !
 ! D122  D(13,19,20,58)        -59.6703         estimate D2E/DX2                !
 ! D123  D(13,19,20,59)         57.5456         estimate D2E/DX2                !
 ! D124  D(18,19,20,21)         62.7768         estimate D2E/DX2                !
 ! D125  D(18,19,20,58)       -179.462          estimate D2E/DX2                !
 ! D126  D(18,19,20,59)        -62.2462         estimate D2E/DX2                !
 ! D127  D(57,19,20,21)        -55.0887         estimate D2E/DX2                !
 ! D128  D(57,19,20,58)         62.6725         estimate D2E/DX2                !
 ! D129  D(57,19,20,59)        179.8884         estimate D2E/DX2                !
 ! D130  D(19,20,21,60)        -56.2971         estimate D2E/DX2                !
 ! D131  D(58,20,21,60)       -175.1346         estimate D2E/DX2                !
 ! D132  D(59,20,21,60)         67.3409         estimate D2E/DX2                !
 ! D133  D(17,22,23,24)        120.2994         estimate D2E/DX2                !
 ! D134  D(17,22,23,28)       -119.9941         estimate D2E/DX2                !
 ! D135  D(17,22,23,61)         -0.8009         estimate D2E/DX2                !
 ! D136  D(22,23,24,25)        175.5705         estimate D2E/DX2                !
 ! D137  D(22,23,24,39)        -63.3697         estimate D2E/DX2                !
 ! D138  D(22,23,24,62)         56.4422         estimate D2E/DX2                !
 ! D139  D(28,23,24,25)         54.3939         estimate D2E/DX2                !
 ! D140  D(28,23,24,39)        175.4538         estimate D2E/DX2                !
 ! D141  D(28,23,24,62)        -64.7343         estimate D2E/DX2                !
 ! D142  D(61,23,24,25)        -62.2125         estimate D2E/DX2                !
 ! D143  D(61,23,24,39)         58.8473         estimate D2E/DX2                !
 ! D144  D(61,23,24,62)        178.6592         estimate D2E/DX2                !
 ! D145  D(22,23,28,27)        179.6788         estimate D2E/DX2                !
 ! D146  D(22,23,28,29)         59.0305         estimate D2E/DX2                !
 ! D147  D(22,23,28,65)        -60.5831         estimate D2E/DX2                !
 ! D148  D(24,23,28,27)        -60.0789         estimate D2E/DX2                !
 ! D149  D(24,23,28,29)        179.2729         estimate D2E/DX2                !
 ! D150  D(24,23,28,65)         59.6592         estimate D2E/DX2                !
 ! D151  D(61,23,28,27)         58.0093         estimate D2E/DX2                !
 ! D152  D(61,23,28,29)        -62.639          estimate D2E/DX2                !
 ! D153  D(61,23,28,65)        177.7474         estimate D2E/DX2                !
 ! D154  D(23,24,25,26)        -52.0627         estimate D2E/DX2                !
 ! D155  D(23,24,25,38)       -175.0412         estimate D2E/DX2                !
 ! D156  D(23,24,25,63)         65.2981         estimate D2E/DX2                !
 ! D157  D(39,24,25,26)       -173.337          estimate D2E/DX2                !
 ! D158  D(39,24,25,38)         63.6846         estimate D2E/DX2                !
 ! D159  D(39,24,25,63)        -55.9761         estimate D2E/DX2                !
 ! D160  D(62,24,25,26)         66.4766         estimate D2E/DX2                !
 ! D161  D(62,24,25,38)        -56.5019         estimate D2E/DX2                !
 ! D162  D(62,24,25,63)       -176.1626         estimate D2E/DX2                !
 ! D163  D(23,24,39,83)       -173.2044         estimate D2E/DX2                !
 ! D164  D(25,24,39,83)        -51.7346         estimate D2E/DX2                !
 ! D165  D(62,24,39,83)         68.0127         estimate D2E/DX2                !
 ! D166  D(24,25,26,27)         53.7573         estimate D2E/DX2                !
 ! D167  D(24,25,26,31)        172.4029         estimate D2E/DX2                !
 ! D168  D(24,25,26,64)        -66.3929         estimate D2E/DX2                !
 ! D169  D(38,25,26,27)        173.5029         estimate D2E/DX2                !
 ! D170  D(38,25,26,31)        -67.8515         estimate D2E/DX2                !
 ! D171  D(38,25,26,64)         53.3527         estimate D2E/DX2                !
 ! D172  D(63,25,26,27)        -64.4463         estimate D2E/DX2                !
 ! D173  D(63,25,26,31)         54.1993         estimate D2E/DX2                !
 ! D174  D(63,25,26,64)        175.4035         estimate D2E/DX2                !
 ! D175  D(24,25,38,82)       -174.3648         estimate D2E/DX2                !
 ! D176  D(26,25,38,82)         63.0951         estimate D2E/DX2                !
 ! D177  D(63,25,38,82)        -56.5325         estimate D2E/DX2                !
 ! D178  D(25,26,27,28)        -61.6349         estimate D2E/DX2                !
 ! D179  D(31,26,27,28)       -178.411          estimate D2E/DX2                !
 ! D180  D(64,26,27,28)         59.66           estimate D2E/DX2                !
 ! D181  D(25,26,31,32)        161.0268         estimate D2E/DX2                !
 ! D182  D(27,26,31,32)        -80.5757         estimate D2E/DX2                !
 ! D183  D(64,26,31,32)         40.0285         estimate D2E/DX2                !
 ! D184  D(26,27,28,23)         65.4742         estimate D2E/DX2                !
 ! D185  D(26,27,28,29)       -170.4872         estimate D2E/DX2                !
 ! D186  D(26,27,28,65)        -53.6938         estimate D2E/DX2                !
 ! D187  D(23,28,29,30)         56.3488         estimate D2E/DX2                !
 ! D188  D(23,28,29,66)        175.7152         estimate D2E/DX2                !
 ! D189  D(23,28,29,67)        -66.6413         estimate D2E/DX2                !
 ! D190  D(27,28,29,30)        -64.5205         estimate D2E/DX2                !
 ! D191  D(27,28,29,66)         54.846          estimate D2E/DX2                !
 ! D192  D(27,28,29,67)        172.4895         estimate D2E/DX2                !
 ! D193  D(65,28,29,30)        176.9636         estimate D2E/DX2                !
 ! D194  D(65,28,29,66)        -63.67           estimate D2E/DX2                !
 ! D195  D(65,28,29,67)         53.9735         estimate D2E/DX2                !
 ! D196  D(28,29,30,68)        -78.1639         estimate D2E/DX2                !
 ! D197  D(66,29,30,68)        161.6989         estimate D2E/DX2                !
 ! D198  D(67,29,30,68)         43.8366         estimate D2E/DX2                !
 ! D199  D(26,31,32,33)         87.4033         estimate D2E/DX2                !
 ! D200  D(26,31,32,69)        -36.2844         estimate D2E/DX2                !
 ! D201  D(26,31,32,70)       -152.0673         estimate D2E/DX2                !
 ! D202  D(31,32,33,34)         57.7699         estimate D2E/DX2                !
 ! D203  D(31,32,33,71)        -65.061          estimate D2E/DX2                !
 ! D204  D(31,32,33,72)        179.9248         estimate D2E/DX2                !
 ! D205  D(69,32,33,34)       -179.4011         estimate D2E/DX2                !
 ! D206  D(69,32,33,71)         57.7681         estimate D2E/DX2                !
 ! D207  D(69,32,33,72)        -57.2462         estimate D2E/DX2                !
 ! D208  D(70,32,33,34)        -59.5236         estimate D2E/DX2                !
 ! D209  D(70,32,33,71)        177.6456         estimate D2E/DX2                !
 ! D210  D(70,32,33,72)         62.6314         estimate D2E/DX2                !
 ! D211  D(32,33,34,35)       -158.3799         estimate D2E/DX2                !
 ! D212  D(32,33,34,73)         79.1613         estimate D2E/DX2                !
 ! D213  D(32,33,34,74)        -34.8152         estimate D2E/DX2                !
 ! D214  D(71,33,34,35)        -37.3288         estimate D2E/DX2                !
 ! D215  D(71,33,34,73)       -159.7876         estimate D2E/DX2                !
 ! D216  D(71,33,34,74)         86.2359         estimate D2E/DX2                !
 ! D217  D(72,33,34,35)         80.5235         estimate D2E/DX2                !
 ! D218  D(72,33,34,73)        -41.9353         estimate D2E/DX2                !
 ! D219  D(72,33,34,74)       -155.9118         estimate D2E/DX2                !
 ! D220  D(33,34,35,36)         59.395          estimate D2E/DX2                !
 ! D221  D(33,34,35,75)        -61.1051         estimate D2E/DX2                !
 ! D222  D(33,34,35,76)       -177.4016         estimate D2E/DX2                !
 ! D223  D(73,34,35,36)       -177.6164         estimate D2E/DX2                !
 ! D224  D(73,34,35,75)         61.8835         estimate D2E/DX2                !
 ! D225  D(73,34,35,76)        -54.413          estimate D2E/DX2                !
 ! D226  D(74,34,35,36)        -63.6292         estimate D2E/DX2                !
 ! D227  D(74,34,35,75)        175.8708         estimate D2E/DX2                !
 ! D228  D(74,34,35,76)         59.5743         estimate D2E/DX2                !
 ! D229  D(34,35,36,37)         56.8364         estimate D2E/DX2                !
 ! D230  D(34,35,36,77)        176.4592         estimate D2E/DX2                !
 ! D231  D(34,35,36,78)        -62.5504         estimate D2E/DX2                !
 ! D232  D(75,35,36,37)        179.0727         estimate D2E/DX2                !
 ! D233  D(75,35,36,77)        -61.3044         estimate D2E/DX2                !
 ! D234  D(75,35,36,78)         59.686          estimate D2E/DX2                !
 ! D235  D(76,35,36,37)        -66.4685         estimate D2E/DX2                !
 ! D236  D(76,35,36,77)         53.1544         estimate D2E/DX2                !
 ! D237  D(76,35,36,78)        174.1448         estimate D2E/DX2                !
 ! D238  D(35,36,37,79)         77.2243         estimate D2E/DX2                !
 ! D239  D(35,36,37,80)        -46.5095         estimate D2E/DX2                !
 ! D240  D(35,36,37,81)       -162.147          estimate D2E/DX2                !
 ! D241  D(77,36,37,79)        -45.4154         estimate D2E/DX2                !
 ! D242  D(77,36,37,80)       -169.1492         estimate D2E/DX2                !
 ! D243  D(77,36,37,81)         75.2132         estimate D2E/DX2                !
 ! D244  D(78,36,37,79)       -160.7344         estimate D2E/DX2                !
 ! D245  D(78,36,37,80)         75.5318         estimate D2E/DX2                !
 ! D246  D(78,36,37,81)        -40.1058         estimate D2E/DX2                !
 --------------------------------------------------------------------------------
 Trust Radius=3.00D-01 FncErr=1.00D-07 GrdErr=1.00D-06
 Number of steps in this run=    504 maximum allowed number of steps=    504.
 GradGradGradGradGradGradGradGradGradGradGradGradGradGradGradGradGradGrad

 Leave Link  103 at Thu Mar 24 14:33:48 2016, MaxMem= 10737418240 cpu:         0.6
 (Enter /share/apps//g09/l202.exe)
 Stoichiometry    C23H44NO16(1+)
 Framework group  C1[X(C23H44NO16)]
 Deg. of freedom   246
 Full point group                 C1      NOp   1
 Largest Abelian subgroup         C1      NOp   1
 Largest concise Abelian subgroup C1      NOp   1
                         Standard orientation:                         
 ---------------------------------------------------------------------
 Center     Atomic      Atomic             Coordinates (Angstroms)
 Number     Number       Type             X           Y           Z
 ---------------------------------------------------------------------
      1          8           0        2.101855    1.978111    0.434696
      2          6           0        2.692642    1.163174   -0.545833
      3          6           0        2.111905    1.446986   -1.922011
      4          6           0        2.176914    2.922749   -2.254791
      5          6           0        1.558235    3.752439   -1.141387
      6          6           0        2.194379    3.365640    0.181816
      7          6           0        1.640190    4.057838    1.422175
      8          8           0        0.461891    3.457628    1.901216
      9          8           0        0.148717    3.574828   -1.143452
     10          8           0        1.456612    3.214325   -3.428642
     11          8           0        2.799292    0.754653   -2.921522
     12          8           0        2.355391   -0.138102   -0.229444
     13          6           0        3.329219   -1.064312    0.211397
     14          6           0        3.212287   -2.292566   -0.665869
     15          8           0        3.495304   -1.937157   -2.000497
     16          6           0        1.804714   -2.851717   -0.563374
     17          6           0        1.323879   -3.007040    0.885644
     18          8           0        1.635802   -1.869406    1.679567
     19          6           0        3.005210   -1.489128    1.635350
     20          6           0        3.204730   -0.406382    2.671442
     21          8           0        2.948742   -0.863696    3.970331
     22          8           0       -0.042554   -3.230235    0.992483
     23          6           0       -0.917158   -2.330542    0.342464
     24          6           0       -1.760450   -3.086574   -0.665262
     25          6           0       -2.779915   -2.162407   -1.296168
     26          6           0       -3.586150   -1.420031   -0.245464
     27          8           0       -2.700742   -0.757937    0.646202
     28          6           0       -1.851551   -1.653547    1.347979
     29          6           0       -1.128905   -0.874800    2.425147
     30          8           0       -0.255572    0.114925    1.913040
     31          8           0       -4.349213   -0.494653   -0.913088
     32          6           0       -5.481102    0.041397   -0.230912
     33          6           0       -5.126906    1.251552    0.610268
     34          6           0       -4.497180    2.368329   -0.215643
     35          6           0       -3.664643    3.362201    0.586740
     36          6           0       -2.499442    2.745306    1.335120
     37          7           0       -1.578139    2.009260    0.431060
     38          8           0       -3.587104   -2.956534   -2.122168
     39          8           0       -0.935441   -3.637178   -1.667971
     40          8           0        1.780304   -4.080542   -1.228419
     41          1           0        3.785075    1.300731   -0.554573
     42          1           0        1.054643    1.146795   -1.877391
     43          1           0        3.230458    3.210309   -2.366108
     44          1           0        1.782823    4.809928   -1.322626
     45          1           0        3.251438    3.659194    0.090570
     46          1           0        1.405574    5.096545    1.188842
     47          1           0        2.411011    4.054988    2.198654
     48          1           0        0.694339    2.581019    2.217951
     49          1           0       -0.101291    3.606280   -2.075563
     50          1           0        1.736865    2.602278   -4.114113
     51          1           0        2.903676   -0.176393   -2.669804
     52          1           0        4.334658   -0.638933    0.140901
     53          1           0        3.930761   -3.043423   -0.315422
     54          1           0        3.323606   -2.709979   -2.546538
     55          1           0        1.165971   -2.128877   -1.076290
     56          1           0        1.795297   -3.892818    1.324118
     57          1           0        3.629154   -2.349555    1.910120
     58          1           0        4.249762   -0.091365    2.648706
     59          1           0        2.590541    0.464571    2.413971
     60          1           0        2.058446   -1.218305    3.998980
     61          1           0       -0.363995   -1.537484   -0.167709
     62          1           0       -2.286503   -3.891097   -0.134063
     63          1           0       -2.241685   -1.403035   -1.881060
     64          1           0       -4.217809   -2.116852    0.328741
     65          1           0       -2.453844   -2.423593    1.851543
     66          1           0       -1.868037   -0.367381    3.046178
     67          1           0       -0.578815   -1.578186    3.052165
     68          1           0        0.550207   -0.340091    1.615574
     69          1           0       -5.940240   -0.740293    0.382009
     70          1           0       -6.187779    0.311406   -1.017324
     71          1           0       -4.454595    0.923906    1.404285
     72          1           0       -6.035986    1.609453    1.100824
     73          1           0       -5.278467    2.916541   -0.746512
     74          1           0       -3.884661    1.922078   -1.006278
     75          1           0       -4.290594    3.863328    1.329228
     76          1           0       -3.293592    4.148080   -0.076940
     77          1           0       -1.900799    3.498289    1.840794
     78          1           0       -2.843562    2.029447    2.080219
     79          1           0       -0.958814    2.643354   -0.104573
     80          1           0       -2.110285    1.412898   -0.199302
     81          1           0       -0.974023    1.357860    0.972303
     82          1           0       -4.189770   -2.388790   -2.606976
     83          1           0       -1.512206   -4.012677   -2.339554
     84          1           0        0.858324   -4.248617   -1.466989
 ---------------------------------------------------------------------
 Rotational constants (GHZ):      0.0991961      0.0867388      0.0653876
 Leave Link  202 at Thu Mar 24 14:33:48 2016, MaxMem= 10737418240 cpu:         0.9
 (Enter /share/apps//g09/l301.exe)
 Standard basis: 6-311+G(d,p) (5D, 7F)
 Ernie: Thresh=  0.10000D-02 Tol=  0.10000D-05 Strict=F.
 There are  1184 symmetry adapted cartesian basis functions of A   symmetry.
 There are  1144 symmetry adapted basis functions of A   symmetry.
  1144 basis functions,  1792 primitive gaussians,  1184 cartesian basis functions
   158 alpha electrons      158 beta electrons
       nuclear repulsion energy      6023.3137017842 Hartrees.
 IExCor= 1009 DFT=T Ex+Corr=PBE1PBE ExCW=0 ScaHFX=  0.250000
 ScaDFX=  0.750000  0.750000  1.000000  1.000000 ScalE2=  1.000000  1.000000
 IRadAn=      0 IRanWt=     -1 IRanGd=            0 ICorTp=0 IEmpDi=131
 NAtoms=   84 NActive=   84 NUniq=   84 SFac= 1.00D+00 NAtFMM=   60 NAOKFM=T Big=T
 Integral buffers will be    131072 words long.
 Raffenetti 2 integral format.
 Two-electron integral symmetry is turned on.
 R6Disp:  Grimme-D3 Dispersion energy=       -0.0867529054 Hartrees.
 Nuclear repulsion after empirical dispersion term =     6023.2269488787 Hartrees.
 Leave Link  301 at Thu Mar 24 14:33:48 2016, MaxMem= 10737418240 cpu:         1.5
 (Enter /share/apps//g09/l302.exe)
 NPDir=0 NMtPBC=     1 NCelOv=     1 NCel=       1 NClECP=     1 NCelD=      1
         NCelK=      1 NCelE2=     1 NClLst=     1 CellRange=     0.0.
 One-electron integrals computed using PRISM.
 NBasis=  1144 RedAO= T EigKep=  1.53D-06  NBF=  1144
 NBsUse=  1144 1.00D-06 EigRej= -1.00D+00 NBFU=  1144
 Precomputing XC quadrature grid using
 IXCGrd= 4 IRadAn=           0 IRanWt=          -1 IRanGd=           0 AccXCQ= 0.00D+00.
 Generated NRdTot=       0 NPtTot=           0 NUsed=           0 NTot=          32
 NSgBfM=  1106  1106  1107  1107  1107 MxSgAt=    84 MxSgA2=    84.
 Leave Link  302 at Thu Mar 24 14:33:52 2016, MaxMem= 10737418240 cpu:        52.7
 (Enter /share/apps//g09/l303.exe)
 DipDrv:  MaxL=1.
 Leave Link  303 at Thu Mar 24 14:33:54 2016, MaxMem= 10737418240 cpu:        27.9
 (Enter /share/apps//g09/l401.exe)
 ExpMin= 4.38D-02 ExpMax= 8.59D+03 ExpMxC= 1.30D+03 IAcc=2 IRadAn=         4 AccDes= 0.00D+00
 Harris functional with IExCor= 1009 and IRadAn=       4 diagonalized for initial guess.
 HarFok:  IExCor= 1009 AccDes= 0.00D+00 IRadAn=         4 IDoV= 1 UseB2=F ITyADJ=14
 ICtDFT=  3500011 ScaDFX=  1.000000  1.000000  1.000000  1.000000
 FoFCou: FMM=F IPFlag=           0 FMFlag=      100000 FMFlg1=        2001
         NFxFlg=           0 DoJE=T BraDBF=F KetDBF=T FulRan=T
         wScrn=  0.000000 ICntrl=     500 IOpCl=  0 I1Cent=   200000004 NGrid=           0
         NMat0=    1 NMatS0=      1 NMatT0=    0 NMatD0=    1 NMtDS0=    0 NMtDT0=    0
 Petite list used in FoFCou.
 Harris En= -2159.74728650844    
 JPrj=0 DoOrth=F DoCkMO=F.
 Leave Link  401 at Thu Mar 24 14:34:08 2016, MaxMem= 10737418240 cpu:       236.3
 (Enter /share/apps//g09/l502.exe)
 Closed shell SCF:
 Using DIIS extrapolation, IDIIS=  1040.
 Integral symmetry usage will be decided dynamically.
 IVT=     4256630 IEndB=     4256630 NGot= 10737418240 MDV= 10734581291
 LenX= 10734581291 LenY= 10733178251
 Requested convergence on RMS density matrix=1.00D-08 within 128 cycles.
 Requested convergence on MAX density matrix=1.00D-06.
 Requested convergence on             energy=1.00D-06.
 No special actions if energy rises.
 Fock matrices will be formed incrementally for  20 cycles.

 Cycle   1  Pass 1  IDiag  1:
 FoFJK:  IHMeth= 1 ICntrl=       0 DoSepK=F KAlg= 0 I1Cent=   0 FoldK=F
 IRaf= 810000000 NMat=   1 IRICut=       1 DoRegI=T DoRafI=F ISym2E= 0.
 FoFCou: FMM=T IPFlag=           0 FMFlag=      100000 FMFlg1=        2001
         NFxFlg=           0 DoJE=F BraDBF=F KetDBF=F FulRan=T
         wScrn=  0.000000 ICntrl=       0 IOpCl=  0 I1Cent=           0 NGrid=           0
         NMat0=    1 NMatS0=      1 NMatT0=    0 NMatD0=    1 NMtDS0=    0 NMtDT0=    0
 Symmetry not used in FoFCou.
 FMM levels:  10  Number of levels for PrismC:   9
 E= -2158.67235482378    
 DIIS: error= 1.31D-02 at cycle   1 NSaved=   1.
 NSaved= 1 IEnMin= 1 EnMin= -2158.67235482378     IErMin= 1 ErrMin= 1.31D-02
 ErrMax= 1.31D-02  0.00D+00 EMaxC= 1.00D-01 BMatC= 1.07D+00 BMatP= 1.07D+00
 IDIUse=3 WtCom= 8.69D-01 WtEn= 1.31D-01
 Coeff-Com:  0.100D+01
 Coeff-En:   0.100D+01
 Coeff:      0.100D+01
 Gap=     0.268 Goal=   None    Shift=    0.000
 GapD=    0.268 DampG=1.000 DampE=0.500 DampFc=0.5000 IDamp=-1.
 Damping current iteration by 5.00D-01
 RMSDP=1.08D-02 MaxDP=1.83D+00              OVMax= 1.42D-01

 Cycle   2  Pass 1  IDiag  1:
 RMSU=  5.33D-03    CP:  9.82D-01
 E= -2158.97668613160     Delta-E=       -0.304331307815 Rises=F Damp=T
 DIIS: error= 3.44D-03 at cycle   2 NSaved=   2.
 NSaved= 2 IEnMin= 2 EnMin= -2158.97668613160     IErMin= 2 ErrMin= 3.44D-03
 ErrMax= 3.44D-03  0.00D+00 EMaxC= 1.00D-01 BMatC= 8.06D-02 BMatP= 1.07D+00
 IDIUse=3 WtCom= 9.66D-01 WtEn= 3.44D-02
 Coeff-Com:  0.522D-01 0.948D+00
 Coeff-En:   0.141D+00 0.859D+00
 Coeff:      0.552D-01 0.945D+00
 Gap=     0.293 Goal=   None    Shift=    0.000
 RMSDP=4.39D-03 MaxDP=1.38D+00 DE=-3.04D-01 OVMax= 8.53D-02

 Cycle   3  Pass 1  IDiag  1:
 RMSU=  2.66D-03    CP:  8.95D-01  9.12D-01
 E= -2159.36378582299     Delta-E=       -0.387099691398 Rises=F Damp=F
 DIIS: error= 3.47D-03 at cycle   3 NSaved=   3.
 NSaved= 3 IEnMin= 3 EnMin= -2159.36378582299     IErMin= 2 ErrMin= 3.44D-03
 ErrMax= 3.47D-03  0.00D+00 EMaxC= 1.00D-01 BMatC= 4.40D-02 BMatP= 8.06D-02
 IDIUse=3 WtCom= 9.65D-01 WtEn= 3.47D-02
 Coeff-Com: -0.661D-01 0.408D+00 0.659D+00
 Coeff-En:   0.000D+00 0.000D+00 0.100D+01
 Coeff:     -0.638D-01 0.393D+00 0.670D+00
 Gap=     0.279 Goal=   None    Shift=    0.000
 RMSDP=1.58D-03 MaxDP=4.08D-01 DE=-3.87D-01 OVMax= 1.79D-02

 Cycle   4  Pass 1  IDiag  1:
 RMSU=  1.20D-03    CP:  9.14D-01  1.03D+00  9.07D-01
 E= -2159.39083751933     Delta-E=       -0.027051696337 Rises=F Damp=F
 DIIS: error= 1.07D-03 at cycle   4 NSaved=   4.
 NSaved= 4 IEnMin= 4 EnMin= -2159.39083751933     IErMin= 4 ErrMin= 1.07D-03
 ErrMax= 1.07D-03  0.00D+00 EMaxC= 1.00D-01 BMatC= 5.85D-03 BMatP= 4.40D-02
 IDIUse=3 WtCom= 9.89D-01 WtEn= 1.07D-02
 Coeff-Com: -0.351D-01 0.120D+00 0.339D+00 0.577D+00
 Coeff-En:   0.000D+00 0.000D+00 0.763D-01 0.924D+00
 Coeff:     -0.347D-01 0.118D+00 0.336D+00 0.580D+00
 Gap=     0.270 Goal=   None    Shift=    0.000
 RMSDP=1.30D-03 MaxDP=4.34D-01 DE=-2.71D-02 OVMax= 6.30D-03

 Cycle   5  Pass 1  IDiag  1:
 RMSU=  3.99D-04    CP:  8.87D-01  9.77D-01  9.14D-01  5.34D-01
 E= -2159.39578953627     Delta-E=       -0.004952016935 Rises=F Damp=F
 DIIS: error= 2.62D-04 at cycle   5 NSaved=   5.
 NSaved= 5 IEnMin= 5 EnMin= -2159.39578953627     IErMin= 5 ErrMin= 2.62D-04
 ErrMax= 2.62D-04  0.00D+00 EMaxC= 1.00D-01 BMatC= 2.42D-04 BMatP= 5.85D-03
 IDIUse=3 WtCom= 9.97D-01 WtEn= 2.62D-03
 Coeff-Com: -0.110D-01 0.254D-01 0.100D+00 0.248D+00 0.638D+00
 Coeff-En:   0.000D+00 0.000D+00 0.000D+00 0.000D+00 0.100D+01
 Coeff:     -0.110D-01 0.254D-01 0.998D-01 0.247D+00 0.639D+00
 Gap=     0.269 Goal=   None    Shift=    0.000
 RMSDP=2.11D-04 MaxDP=7.77D-02 DE=-4.95D-03 OVMax= 1.50D-03

 Cycle   6  Pass 1  IDiag  1:
 RMSU=  8.78D-05    CP:  8.90D-01  9.94D-01  9.23D-01  5.65D-01  7.06D-01
 E= -2159.39596809992     Delta-E=       -0.000178563652 Rises=F Damp=F
 DIIS: error= 9.54D-05 at cycle   6 NSaved=   6.
 NSaved= 6 IEnMin= 6 EnMin= -2159.39596809992     IErMin= 6 ErrMin= 9.54D-05
 ErrMax= 9.54D-05  0.00D+00 EMaxC= 1.00D-01 BMatC= 2.58D-05 BMatP= 2.42D-04
 IDIUse=1 WtCom= 1.00D+00 WtEn= 0.00D+00
 Coeff-Com: -0.391D-02 0.703D-02 0.348D-01 0.100D+00 0.336D+00 0.526D+00
 Coeff:     -0.391D-02 0.703D-02 0.348D-01 0.100D+00 0.336D+00 0.526D+00
 Gap=     0.269 Goal=   None    Shift=    0.000
 RMSDP=4.24D-05 MaxDP=1.07D-02 DE=-1.79D-04 OVMax= 4.72D-04

 Cycle   7  Pass 1  IDiag  1:
 RMSU=  1.76D-05    CP:  8.90D-01  9.91D-01  9.24D-01  5.75D-01  7.44D-01
                    CP:  6.87D-01
 E= -2159.39598695491     Delta-E=       -0.000018854987 Rises=F Damp=F
 DIIS: error= 2.69D-05 at cycle   7 NSaved=   7.
 NSaved= 7 IEnMin= 7 EnMin= -2159.39598695491     IErMin= 7 ErrMin= 2.69D-05
 ErrMax= 2.69D-05  0.00D+00 EMaxC= 1.00D-01 BMatC= 1.93D-06 BMatP= 2.58D-05
 IDIUse=1 WtCom= 1.00D+00 WtEn= 0.00D+00
 Coeff-Com: -0.106D-02 0.150D-02 0.972D-02 0.322D-01 0.123D+00 0.271D+00
 Coeff-Com:  0.564D+00
 Coeff:     -0.106D-02 0.150D-02 0.972D-02 0.322D-01 0.123D+00 0.271D+00
 Coeff:      0.564D+00
 Gap=     0.269 Goal=   None    Shift=    0.000
 RMSDP=8.23D-06 MaxDP=1.82D-03 DE=-1.89D-05 OVMax= 1.40D-04

 Cycle   8  Pass 1  IDiag  1:
 RMSU=  6.60D-06    CP:  8.90D-01  9.91D-01  9.24D-01  5.76D-01  7.49D-01
                    CP:  6.84D-01  7.85D-01
 E= -2159.39598817498     Delta-E=       -0.000001220077 Rises=F Damp=F
 DIIS: error= 5.73D-06 at cycle   8 NSaved=   8.
 NSaved= 8 IEnMin= 8 EnMin= -2159.39598817498     IErMin= 8 ErrMin= 5.73D-06
 ErrMax= 5.73D-06  0.00D+00 EMaxC= 1.00D-01 BMatC= 1.45D-07 BMatP= 1.93D-06
 IDIUse=1 WtCom= 1.00D+00 WtEn= 0.00D+00
 Coeff-Com:  0.191D-04-0.219D-03 0.407D-04 0.197D-02 0.113D-01 0.513D-01
 Coeff-Com:  0.252D+00 0.684D+00
 Coeff:      0.191D-04-0.219D-03 0.407D-04 0.197D-02 0.113D-01 0.513D-01
 Coeff:      0.252D+00 0.684D+00
 Gap=     0.269 Goal=   None    Shift=    0.000
 RMSDP=4.28D-06 MaxDP=1.65D-03 DE=-1.22D-06 OVMax= 3.59D-05

 Cycle   9  Pass 1  IDiag  1:
 RMSU=  2.09D-06    CP:  8.90D-01  9.91D-01  9.24D-01  5.75D-01  7.53D-01
                    CP:  6.87D-01  8.24D-01  9.14D-01
 E= -2159.39598828320     Delta-E=       -0.000000108213 Rises=F Damp=F
 DIIS: error= 1.82D-06 at cycle   9 NSaved=   9.
 NSaved= 9 IEnMin= 9 EnMin= -2159.39598828320     IErMin= 9 ErrMin= 1.82D-06
 ErrMax= 1.82D-06  0.00D+00 EMaxC= 1.00D-01 BMatC= 9.01D-09 BMatP= 1.45D-07
 IDIUse=1 WtCom= 1.00D+00 WtEn= 0.00D+00
 Coeff-Com:  0.638D-04-0.169D-03-0.537D-03-0.968D-03-0.246D-02 0.489D-02
 Coeff-Com:  0.708D-01 0.290D+00 0.639D+00
 Coeff:      0.638D-04-0.169D-03-0.537D-03-0.968D-03-0.246D-02 0.489D-02
 Coeff:      0.708D-01 0.290D+00 0.639D+00
 Gap=     0.269 Goal=   None    Shift=    0.000
 RMSDP=9.70D-07 MaxDP=2.48D-04 DE=-1.08D-07 OVMax= 1.07D-05

 Cycle  10  Pass 1  IDiag  1:
 RMSU=  5.32D-07    CP:  8.90D-01  9.91D-01  9.24D-01  5.75D-01  7.52D-01
                    CP:  6.93D-01  8.26D-01  9.25D-01  8.31D-01
 E= -2159.39598829020     Delta-E=       -0.000000007003 Rises=F Damp=F
 DIIS: error= 4.86D-07 at cycle  10 NSaved=  10.
 NSaved=10 IEnMin=10 EnMin= -2159.39598829020     IErMin=10 ErrMin= 4.86D-07
 ErrMax= 4.86D-07  0.00D+00 EMaxC= 1.00D-01 BMatC= 1.11D-09 BMatP= 9.01D-09
 IDIUse=1 WtCom= 1.00D+00 WtEn= 0.00D+00
 Coeff-Com:  0.268D-04-0.616D-04-0.259D-03-0.579D-03-0.191D-02-0.121D-02
 Coeff-Com:  0.170D-01 0.914D-01 0.320D+00 0.576D+00
 Coeff:      0.268D-04-0.616D-04-0.259D-03-0.579D-03-0.191D-02-0.121D-02
 Coeff:      0.170D-01 0.914D-01 0.320D+00 0.576D+00
 Gap=     0.269 Goal=   None    Shift=    0.000
 RMSDP=3.05D-07 MaxDP=7.34D-05 DE=-7.00D-09 OVMax= 2.78D-06

 Cycle  11  Pass 1  IDiag  1:
 RMSU=  1.30D-07    CP:  8.90D-01  9.91D-01  9.24D-01  5.75D-01  7.52D-01
                    CP:  6.92D-01  8.31D-01  9.30D-01  8.17D-01  7.26D-01
 E= -2159.39598829104     Delta-E=       -0.000000000838 Rises=F Damp=F
 DIIS: error= 1.45D-07 at cycle  11 NSaved=  11.
 NSaved=11 IEnMin=11 EnMin= -2159.39598829104     IErMin=11 ErrMin= 1.45D-07
 ErrMax= 1.45D-07  0.00D+00 EMaxC= 1.00D-01 BMatC= 9.34D-11 BMatP= 1.11D-09
 IDIUse=1 WtCom= 1.00D+00 WtEn= 0.00D+00
 Coeff-Com:  0.740D-05-0.159D-04-0.864D-04-0.204D-03-0.724D-03-0.975D-03
 Coeff-Com:  0.276D-02 0.214D-01 0.107D+00 0.285D+00 0.586D+00
 Coeff:      0.740D-05-0.159D-04-0.864D-04-0.204D-03-0.724D-03-0.975D-03
 Coeff:      0.276D-02 0.214D-01 0.107D+00 0.285D+00 0.586D+00
 Gap=     0.269 Goal=   None    Shift=    0.000
 RMSDP=6.51D-08 MaxDP=2.61D-05 DE=-8.38D-10 OVMax= 8.36D-07

 Cycle  12  Pass 1  IDiag  1:
 RMSU=  3.72D-08    CP:  8.90D-01  9.91D-01  9.24D-01  5.75D-01  7.52D-01
                    CP:  6.92D-01  8.32D-01  9.32D-01  8.33D-01  7.41D-01
                    CP:  7.66D-01
 E= -2159.39598829103     Delta-E=        0.000000000011 Rises=F Damp=F
 DIIS: error= 3.29D-08 at cycle  12 NSaved=  12.
 NSaved=12 IEnMin=11 EnMin= -2159.39598829104     IErMin=12 ErrMin= 3.29D-08
 ErrMax= 3.29D-08  0.00D+00 EMaxC= 1.00D-01 BMatC= 7.29D-12 BMatP= 9.34D-11
 IDIUse=1 WtCom= 1.00D+00 WtEn= 0.00D+00
 Coeff-Com:  0.158D-06-0.512D-07-0.107D-04-0.277D-04-0.113D-03-0.296D-03
 Coeff-Com: -0.731D-03-0.104D-02 0.112D-01 0.615D-01 0.261D+00 0.669D+00
 Coeff:      0.158D-06-0.512D-07-0.107D-04-0.277D-04-0.113D-03-0.296D-03
 Coeff:     -0.731D-03-0.104D-02 0.112D-01 0.615D-01 0.261D+00 0.669D+00
 Gap=     0.269 Goal=   None    Shift=    0.000
 RMSDP=1.78D-08 MaxDP=2.99D-06 DE= 1.09D-11 OVMax= 2.68D-07

 Cycle  13  Pass 1  IDiag  1:
 RMSU=  1.27D-08    CP:  8.90D-01  9.91D-01  9.24D-01  5.75D-01  7.52D-01
                    CP:  6.92D-01  8.31D-01  9.32D-01  8.33D-01  7.52D-01
                    CP:  7.64D-01  9.16D-01
 E= -2159.39598829118     Delta-E=       -0.000000000158 Rises=F Damp=F
 DIIS: error= 1.08D-08 at cycle  13 NSaved=  13.
 NSaved=13 IEnMin=13 EnMin= -2159.39598829118     IErMin=13 ErrMin= 1.08D-08
 ErrMax= 1.08D-08  0.00D+00 EMaxC= 1.00D-01 BMatC= 5.71D-13 BMatP= 7.29D-12
 IDIUse=1 WtCom= 1.00D+00 WtEn= 0.00D+00
 Coeff-Com: -0.367D-06 0.913D-06 0.236D-06-0.206D-06-0.684D-05-0.688D-04
 Coeff-Com: -0.493D-03-0.177D-02-0.173D-02 0.974D-02 0.810D-01 0.308D+00
 Coeff-Com:  0.606D+00
 Coeff:     -0.367D-06 0.913D-06 0.236D-06-0.206D-06-0.684D-05-0.688D-04
 Coeff:     -0.493D-03-0.177D-02-0.173D-02 0.974D-02 0.810D-01 0.308D+00
 Coeff:      0.606D+00
 Gap=     0.269 Goal=   None    Shift=    0.000
 RMSDP=5.76D-09 MaxDP=1.07D-06 DE=-1.58D-10 OVMax= 8.23D-08

 Cycle  14  Pass 1  IDiag  1:
 RMSU=  4.35D-09    CP:  8.90D-01  9.91D-01  9.24D-01  5.75D-01  7.52D-01
[...]
 03764,0.00056100,-0.00076090,-0.00075485,-0.00004138,0.00038649,0.0001
 5867,0.00001646,-0.00007011,-0.00005325,-0.00001137,0.00000678,0.00001
 967,-0.00000737,-0.00000781,-0.00000761,-0.00001578,0.00004383,0.00002
 481,0.00003951,-0.00000312,-0.00002288,-0.00031320,-0.00098009,-0.0003
 4563,-0.32650742,0.03568585,-0.23247430,0.00021273,0.00099641,0.001176
 04,0.00001251,0.00000588,0.00001260,-0.00001184,0.00003438,0.00002544,
 0.00001095,0.00000922,-0.00000164,0.00001230,0.00000505,-0.00000225,0.
 00000370,0.00000961,0.00000334,0.00000075,0.00000011,-0.00000623,0.000
 00300,0.00000319,0.00000912,-0.00003182,0.00000326,-0.00000967,-0.0000
 2961,-0.00001604,0.00001796,-0.00001959,-0.00004450,0.00001797,-0.0000
 3680,-0.00005513,-0.00004056,0.00001825,0.00001058,-0.00000105,0.00001
 204,0.00001272,0.00002263,0.00003675,-0.00010350,-0.00005509,-0.000122
 73,-0.00000867,-0.00009255,0.00002523,0.00002075,0.00004758,-0.0000029
 6,0.00001039,0.00001376,0.00000936,-0.00000055,0.00000437,-0.00000273,
 -0.00000390,0.00000504,-0.00002306,0.00001924,-0.00001950,0.00034969,-
 0.00002844,0.00010634,0.00126299,-0.00120796,-0.00016399,-0.00053789,-
 0.00004050,0.00046049,0.00013024,-0.00018497,-0.00004038,-0.00002270,0
 .00005004,0.00000849,-0.00008394,-0.00001542,-0.00007566,0.00001917,0.
 00001428,0.00001235,-0.00005438,-0.00000028,-0.00001363,0.00001563,-0.
 00003267,0.00000996,0.00003047,-0.00003538,-0.00005707,-0.00001925,0.0
 0002259,0.00000524,0.00004710,-0.00001534,-0.00001116,0.00000670,-0.00
 000586,-0.00001111,-0.00001464,-0.00002426,0.00001477,0.00000595,-0.00
 000885,0.00000096,0.00000682,0.00001110,0.00000369,0.00000340,-0.00000
 444,-0.00000524,-0.00001149,0.00000308,-0.00001031,-0.00003908,-0.0000
 5225,0.00000675,-0.00009744,0.00000507,0.00003215,-0.00003934,-0.00000
 181,-0.00001967,0.00001383,-0.00012209,0.00025039,0.34537975,-0.000000
 15,-0.00004962,0.00003924,0.00005741,0.00009395,-0.00009961,-0.0000995
 2,0.00008660,0.00004044,-0.00001742,0.00001622,-0.00004479,0.00000187,
 0.00002863,0.00001841,0.00000587,0.00000556,-0.00002281,0.00000764,0.0
 0003585,0.00000526,-0.00002206,-0.00004253,-0.00000558,0.00000252,-0.0
 0006975,-0.00000943,0.00006052,-0.00003474,0.00004783,0.00016668,-0.00
 007444,0.00005207,-0.00010101,-0.00007975,0.00010504,0.00006888,-0.000
 02938,-0.00002718,0.00008681,0.00036520,-0.00032714,0.00008283,-0.0002
 6072,0.00020277,-0.00022599,-0.00026726,0.00015667,0.00034078,-0.00008
 279,0.00019376,-0.00020137,-0.00005981,-0.00007075,0.00005750,0.000074
 65,0.00005349,0.00000567,-0.00000942,-0.00001239,-0.00001853,-0.000006
 49,0.00000065,-0.00066480,0.00019426,-0.00046162,0.00173308,-0.0059313
 1,-0.00217739,0.03444346,-0.00596045,0.02210989,0.00305068,0.00104270,
 -0.00011279,0.00043309,-0.00022743,0.00032145,-0.00068933,0.00015113,-
 0.00039043,0.00159231,0.00055559,0.00139318,0.00014564,-0.00054461,-0.
 00036063,-0.00008009,0.00006638,-0.00001100,-0.00045301,0.00024652,0.0
 0018645,0.00010392,-0.00020660,-0.00013465,-0.00000794,0.00002449,0.00
 002706,-0.00000743,0.00002009,-0.00001595,0.00000915,-0.00000048,0.000
 01119,-0.00001043,0.00000414,0.00000058,-0.00002302,-0.00004093,-0.000
 00240,-0.00055448,-0.00105471,0.00130189,0.00213007,-0.03690558,-0.020
 20308,-0.00015269,-0.00102047,-0.00083190,-0.00000837,-0.00000983,0.00
 000191,-0.00001321,0.00000174,-0.00001014,0.00000209,-0.00000012,0.000
 00548,-0.00000016,-0.00000462,-0.00000178,-0.00000251,-0.00000360,-0.0
 0000244,-0.00000213,-0.00000017,0.00000183,0.00000113,-0.00000685,-0.0
 0000127,0.00000779,0.00001070,-0.00000025,-0.00002130,0.00002870,0.000
 00143,-0.00005074,0.00000053,-0.00000932,-0.00007740,0.00003059,-0.000
 10731,-0.00002788,-0.00000446,0.00000705,-0.00007180,-0.00010546,-0.00
 001065,-0.00011230,0.00007542,-0.00015197,0.00039010,0.00029933,-0.000
 16909,-0.00000881,0.00005796,-0.00000719,0.00000105,-0.00000934,0.0000
 0138,-0.00000800,0.00000027,-0.00000219,0.00000283,0.00000580,0.000001
 28,0.00001598,-0.00000448,0.00000223,-0.00010405,0.00012400,-0.0002051
 4,0.00026090,-0.00054841,0.00079261,-0.00058618,-0.00009510,0.00007268
 ,0.00003544,-0.00014094,-0.00000182,-0.00003300,0.00003544,0.00003411,
 0.00017292,-0.00002357,0.00009250,-0.00002299,-0.00000700,-0.00000929,
 0.00003407,-0.00000469,-0.00002786,-0.00000558,0.00000031,0.00000713,-
 0.00000144,0.00001685,0.00001833,0.00000658,-0.00000807,-0.00000221,-0
 .00002549,0.00000286,0.00000559,-0.00000418,0.00000212,0.00000495,0.00
 001749,0.00000966,-0.00001072,-0.00000133,0.00000269,-0.00000402,-0.00
 001364,-0.00000862,-0.00000185,-0.00000093,0.00000212,0.00000213,0.000
 01080,-0.00000507,0.00001114,0.00001952,0.00007747,-0.00000813,0.00005
 326,0.00003656,-0.00000929,0.00002163,0.00000780,0.00002436,-0.0011500
 4,0.00083306,-0.00006365,-0.03862705,0.04759145,0.00008434,-0.00000124
 ,-0.00008921,-0.00015886,-0.00007642,0.00015449,0.00002004,0.00004957,
 0.00002049,0.00001063,-0.00003239,0.00006411,0.00002786,0.00004497,0.0
 0003949,-0.00004361,-0.00002266,0.00005726,0.00000927,0.00000932,-0.00
 000187,-0.00000610,-0.00000659,-0.00002997,-0.00004323,-0.00004913,-0.
 00006401,-0.00005020,0.00000811,-0.00008914,0.00000793,-0.00000854,-0.
 00010994,0.00016381,0.00008279,-0.00017009,-0.00007551,0.00005487,0.00
 012082,0.00007074,-0.00015699,0.00003322,0.00005776,0.00009840,-0.0000
 6262,0.00016563,0.00028509,0.00032454,-0.00004836,-0.00007003,-0.00001
 722,0.00028243,0.00002070,0.00004897,-0.00004931,-0.00008146,-0.000066
 10,-0.00002720,0.00002096,0.00001817,0.00004492,-0.00001486,-0.0000020
 0,-0.00031506,0.00030509,0.00025155,0.00187890,-0.00212338,-0.00165349
 ,0.00845221,-0.00112803,0.00622560,0.00562714,-0.00245839,0.00245241,0
 .00027658,-0.00031083,0.00029608,-0.00100595,0.00037975,-0.00095569,0.
 00043610,-0.00003943,0.00162201,-0.00000950,-0.00030725,-0.00023928,0.
 00013608,0.00004694,-0.00012094,-0.00037755,0.00029894,-0.00029868,0.0
 0017969,-0.00023395,-0.00014678,-0.00000990,0.00002256,0.00003610,0.00
 000376,-0.00000997,-0.00002860,0.00001761,0.00000705,0.00001952,-0.000
 03282,0.00000892,0.00001051,0.00001317,-0.00001454,-0.00009524,-0.0018
 6599,0.00189114,0.00036172,-0.25494361,0.00618542,-0.20704873,0.000531
 83,-0.00086115,-0.00092564,0.00000753,0.00000455,-0.00001281,0.0000026
 2,-0.00002084,0.00000816,-0.00000525,-0.00000709,-0.00000943,-0.000002
 44,-0.00000701,-0.00000818,0.00000434,0.00000358,-0.00000595,0.0000063
 2,-0.00000099,-0.00000137,-0.00000709,-0.00000029,-0.00000373,-0.00001
 927,-0.00000679,0.00002362,0.00002958,0.00001297,0.00002231,0.00002708
 ,0.00001342,0.00003295,-0.00004522,-0.00002110,0.00011741,0.00003018,0
 .00000225,-0.00001533,-0.00001437,0.00000725,0.00000762,-0.00005656,-0
 .00007006,0.00000113,-0.00003010,-0.00004581,-0.00008742,-0.00000932,0
 .00000341,-0.00001317,0.00000059,0.00001487,-0.00000494,0.00000686,-0.
 00000034,0.00000418,0.00000183,-0.00000875,-0.00000289,-0.00003046,0.0
 0001277,-0.00000035,-0.00002292,0.00006276,-0.00004987,-0.00022438,-0.
 00086835,-0.00006571,-0.00009442,-0.00000338,-0.00033949,-0.00005525,0
 .00011066,0.00004135,0.00001524,0.00005091,-0.00006309,0.00015255,-0.0
 0003124,0.00005011,-0.00005678,0.00000706,-0.00002953,-0.00008177,0.00
 002443,0.00003153,-0.00000417,0.00001797,0.00001970,0.00000937,0.00000
 496,-0.00000121,-0.00000810,-0.00000233,-0.00001315,-0.00002676,0.0000
 0921,0.00000532,-0.00000019,-0.00000325,-0.00000517,0.00001968,0.00001
 725,0.00000432,-0.00000930,0.00000404,-0.00000909,-0.00000863,-0.00000
 675,-0.00000640,-0.00000095,0.00000057,0.00000368,0.00001391,0.0000037
 7,0.00001456,0.00002408,0.00002789,0.00001948,0.00007113,-0.00000363,0
 .00004553,-0.00004252,-0.00001258,0.00019640,-0.00058290,0.00052768,-0
 .00049891,0.24423329,-0.00224993,0.20108822,0.00023380,-0.00003283,-0.
 00012741,-0.00035082,-0.00009794,0.00029155,-0.00004763,0.00005271,0.0
 0000240,-0.00001455,-0.00004864,0.00009227,0.00000524,0.00004308,0.000
 02277,-0.00010262,-0.00005241,0.00008172,-0.00001396,0.00002141,-0.000
 01041,0.00003037,-0.00002512,-0.00001859,0.00001231,-0.00004114,-0.000
 06456,0.00000199,0.00004713,-0.00011524,0.00015176,0.00003353,-0.00016
 473,0.00075362,0.00023518,-0.00016258,-0.00058936,-0.00168756,-0.00089
 304,-0.00691379,0.00261400,0.00154178,0.00097707,0.00062738,-0.0001177
 4,-0.03258191,-0.02100427,-0.02886682,-0.00221785,0.00101603,-0.001167
 28,0.00120680,-0.00023539,0.00033483,-0.00014741,-0.00044436,-0.000174
 64,-0.00006136,0.00012171,-0.00002400,0.00010491,-0.00006727,0.0000439
 8,0.00052613,-0.00066953,-0.00077216,-0.00018583,0.00070391,0.00130544
 ,0.00091681,-0.00142263,0.00117869,-0.00025372,0.00062823,0.00011046,0
 .00045045,-0.00007513,0.00038819,-0.00018258,-0.00014293,-0.00045096,-
 0.00026021,0.00005603,0.00015779,0.00001820,0.00009206,0.00002309,0.00
 007472,-0.00016563,-0.00016637,-0.00013992,0.00009103,-0.00002266,0.00
 001945,-0.00001391,0.00001227,0.00000031,0.00000333,0.00001760,-0.0000
 0124,0.00000716,-0.00000943,0.00000846,-0.00000244,0.00001105,-0.00003
 895,0.00004398,0.00002204,0.00002814,-0.00003565,-0.00008800,-0.000241
 07,0.00000591,-0.00019659,-0.00598037,0.00222313,-0.00082386,-0.152458
 81,-0.09354233,-0.13719843,0.00005002,0.00004256,-0.00000674,-0.000007
 26,-0.00000059,0.00003447,0.00000424,0.00000026,-0.00000861,0.00001035
 ,-0.00000616,-0.00001552,0.00000819,0.00001213,-0.00000437,0.00000702,
 -0.00000472,-0.00000767,-0.00000530,-0.00000117,0.00000448,-0.00003708
 ,0.00001549,0.00001786,-0.00000702,0.00000838,0.00003565,0.00000089,-0
 .00003004,0.00005069,-0.00017909,-0.00012969,0.00021116,-0.00041779,0.
 00020931,0.00003689,0.00016965,0.00030634,0.00003623,-0.00021325,-0.00
 087935,0.00031649,0.00217945,-0.00104180,-0.00014709,-0.00000697,-0.00
 001945,-0.00000303,-0.00000249,0.00005660,-0.00002310,0.00004482,-0.00
 000986,0.00001912,0.00000798,-0.00001410,0.00000482,-0.00008891,0.0000
 7039,-0.00002832,-0.00028144,0.00009837,0.00009468,0.00002318,0.000006
 23,-0.00007083,-0.00003235,-0.00004147,0.00000271,-0.00003018,-0.00000
 790,-0.00001027,0.00005050,-0.00009706,-0.00002552,0.00001758,-0.00001
 593,-0.00002993,-0.00004068,0.00005307,-0.00001755,-0.00016905,0.00013
 233,0.00018381,-0.00000130,-0.00000460,0.00000722,-0.00000120,0.000005
 87,-0.00000318,-0.00000462,0.00000900,-0.00000591,-0.00000508,-0.00000
 261,-0.00000554,-0.00000139,-0.00000397,-0.00000732,0.00000820,-0.0000
 0426,0.00000571,-0.00000176,-0.00000388,-0.00000706,-0.00000569,0.0000
 0062,-0.00000137,0.00000104,0.00000152,0.00000288,0.00000483,0.0000012
 8,0.00000591,0.00000231,0.00002686,0.00001913,0.00001684,0.00001417,0.
 00004058,-0.00004300,-0.00000016,0.00014972,0.00001134,-0.00003078,-0.
 00001539,0.00067814,-0.00133014,-0.00265272,0.19554974,0.00026724,-0.0
 0016415,-0.00013636,-0.00041497,0.00002398,0.00028043,-0.00013431,0.00
 023014,0.00009195,-0.00002530,-0.00003447,0.00004910,0.00003268,0.0001
 0912,0.00006956,-0.00007932,-0.00004876,0.00005977,0.00002900,0.000125
 85,0.00000281,-0.00005494,-0.00014014,-0.00002914,-0.00003029,-0.00017
 986,-0.00009014,0.00003718,-0.00001584,-0.00008601,0.00033340,-0.00010
 998,-0.00019343,0.00057786,-0.00000437,-0.00021764,-0.00030654,0.00020
 847,0.00006361,-0.00034528,-0.00059159,-0.00038595,0.00006091,0.000601
 49,0.00014795,0.00319247,0.00315638,0.00634283,0.00451539,0.00346398,0
 .00215013,0.00043093,-0.00171140,-0.00023157,-0.00006063,0.00015520,-0
 .00010068,-0.00014932,0.00002476,-0.00006370,0.00009259,-0.00018344,0.
 00005762,-0.00214345,-0.00050641,-0.00096570,0.00128653,0.00003404,-0.
 00083942,0.00219898,-0.00388677,-0.00064507,-0.00036721,0.00089471,-0.
 00022310,0.00059419,-0.00034764,0.00002310,-0.00032890,0.00008148,0.00
 007898,-0.00019293,-0.00029646,-0.00021182,0.00025882,0.00036844,0.000
 14725,-0.00028691,-0.00037207,-0.00013969,-0.00037746,0.00038219,0.000
 52840,0.00009534,-0.00026650,-0.00014248,-0.00001961,0.00004250,0.0000
 1728,0.00000288,0.00001721,-0.00001615,0.00001186,-0.00000148,0.000010
 98,-0.00000571,0.00001431,-0.00000835,-0.00006321,-0.00008914,0.000034
 45,-0.00003991,0.00013248,0.00045474,0.00007943,-0.00131737,0.00314134
 ,-0.12163762,-0.13386089,-0.17473995,0.00002143,0.00000327,-0.00002430
 ,-0.00002059,-0.00002844,0.00000089,-0.00000246,-0.00000832,-0.0000040
 5,0.00000356,-0.00001873,-0.00001998,0.00000210,-0.00000015,-0.0000098
 7,0.00000343,-0.00001311,-0.00000173,-0.00000756,-0.00001532,-0.000005
 47,0.00003043,0.00006648,0.00001465,-0.00001144,0.00004797,0.00002874,
 -0.00002982,-0.00000094,0.00004989,-0.00029975,-0.00008224,0.00017475,
 0.00008062,0.00001354,-0.00001235,-0.00002506,-0.00002577,0.00014180,-
 0.00012728,-0.00025669,-0.00081704,0.00140123,0.00039819,-0.00151204,0
 .00001384,0.00000389,0.00003120,-0.00001261,-0.00000344,-0.00006185,-0
 .00002784,0.00000423,-0.00001447,0.00002325,0.00000512,-0.00000030,-0.
 00000871,0.00007516,0.00002176,-0.00022307,0.00007927,0.00024868,-0.00
 010911,0.00010382,-0.00015294,-0.00002934,-0.00004394,0.00001989,-0.00
 003700,-0.00000007,0.00001145,0.00002112,-0.00009472,-0.00001898,-0.00
 008974,-0.00001784,-0.00001388,0.00001647,-0.00000921,0.00002044,0.000
 01005,0.00023888,0.00024229,-0.00001771,0.00000988,0.00000009,-0.00001
 316,0.00002631,0.00003662,0.00002280,-0.00001907,-0.00000212,-0.000031
 64,0.00000639,0.00001328,-0.00000757,0.00000006,0.00000836,0.00002055,
 0.00001371,-0.00001424,-0.00000254,0.00000536,-0.00000463,-0.00001540,
 -0.00001238,0.00000428,-0.00000136,0.00001084,0.00001081,0.00001830,-0
 .00001902,0.00000788,0.00005847,0.00018186,0.00000331,0.00011189,0.000
 05807,-0.00003663,0.00007641,0.00005727,-0.00002875,-0.00007129,0.0000
 5839,-0.00010709,-0.00149686,0.00168428,0.00061292,0.11374911,0.131579
 18,0.00031991,-0.00011564,-0.00030302,-0.00061872,-0.00012154,0.000545
 88,0.00008184,0.00016884,0.00010346,-0.00001887,-0.00006693,0.00009545
 ,0.00007232,0.00012623,0.00010726,-0.00012320,-0.00007223,0.00015068,0
 .00004335,0.00011680,0.00000349,-0.00006574,-0.00012527,-0.00006589,-0
 .00009478,-0.00018098,-0.00013640,-0.00005534,0.00001474,-0.00018037,0
 .00005280,-0.00005003,-0.00036660,0.00048816,0.00011132,-0.00081674,0.
 00027355,0.00129184,0.00124833,0.00407691,-0.00104799,-0.00045501,0.00
 059349,0.00034874,-0.00042679,0.00457265,0.00519292,0.00751142,-0.0008
 2042,0.00240655,0.00053670,0.00159767,-0.00126647,-0.00009169,-0.00028
 690,0.00001947,-0.00033437,-0.00021099,0.00014143,0.00003339,0.0002185
 6,-0.00022021,0.00002702,0.00006757,-0.00156989,-0.00266913,0.00050830
 ,0.00034844,0.00255564,0.00517506,-0.00641177,0.00194886,-0.00088612,0
 .00187486,-0.00021925,0.00133785,-0.00074552,0.00050416,-0.00055630,-0
 .00001446,-0.00060197,-0.00029960,-0.00021732,-0.00029103,0.00028592,0
 .00045597,0.00032037,-0.00026793,-0.00045383,-0.00044610,-0.00068350,0
 .00073616,0.00072379,0.00014851,-0.00044519,-0.00020949,-0.00002674,0.
 00006952,0.00005123,0.00001213,0.00000781,-0.00003267,0.00002146,0.000
 00353,0.00002306,-0.00001868,0.00000384,-0.00000894,-0.00005710,-0.000
 07606,-0.00004709,-0.00024035,0.00047300,0.00045327,-0.00415477,0.0054
 7341,-0.00178781,-0.17848371,-0.17562290,-0.26012467,0.00000920,-0.000
 02143,-0.00004323,0.00000548,-0.00006277,-0.00003578,-0.00001449,-0.00
 002289,-0.00000704,-0.00000588,-0.00001907,-0.00002721,0.00000699,0.00
 000210,-0.00001307,0.00001115,-0.00001531,-0.00000526,-0.00002118,-0.0
 0001100,-0.00001125,0.00001929,0.00005752,0.00005434,0.00003095,0.0000
 3842,0.00003333,0.00003726,0.00001352,0.00005799,-0.00011157,-0.000051
 89,0.00050196,0.00059311,-0.00007008,-0.00011623,-0.00010947,-0.000130
 89,0.00008362,-0.00042598,-0.00087003,0.00044019,0.00271978,0.00057522
 ,0.00014158,-0.00026889,0.00005806,-0.00041794,-0.00002033,0.00001886,
 -0.00004277,0.00000612,-0.00001959,-0.00000827,0.00004279,-0.00001529,
 -0.00001149,-0.00011539,0.00012132,0.00004045,0.00007840,0.00008770,-0
 .00008632,-0.00041493,0.00128398,0.00024736,0.00003689,-0.00008762,-0.
 00013826,-0.00009016,0.00003511,0.00001926,0.00003180,-0.00002169,0.00
 002426,-0.00011113,-0.00002646,-0.00006273,-0.00006107,0.00005761,-0.0
 0003864,-0.00011368,0.00033020,0.00057018,-0.00001986,0.00002153,0.000
 00010,-0.00002262,0.00004183,0.00005155,0.00002396,-0.00002353,-0.0000
 1214,-0.00005275,0.00001260,0.00001798,-0.00000991,-0.00000126,0.00000
 561,0.00002811,0.00002693,-0.00001190,-0.00000901,0.00000887,-0.000008
 88,-0.00001939,-0.00001637,-0.00000084,-0.00000346,0.00001349,0.000017
 42,0.00002653,-0.00001274,0.00001856,0.00007728,0.00017401,0.00001898,
 0.00016235,0.00003947,-0.00002519,0.00006604,0.00003499,0.00014907,-0.
 00011871,-0.00002107,-0.00019883,-0.00166627,0.00103361,-0.00043220,0.
 16781440,0.16687281,0.25193329\\0.00000283,-0.00000565,0.00001155,-0.0
 0000528,0.00002676,-0.00001091,0.00000243,0.00000366,-0.00000198,-0.00
 000388,0.00000354,0.00000618,-0.00000906,-0.00000640,0.00000368,0.0000
 0578,-0.00000777,-0.00001529,0.00000476,0.00000151,0.00000173,0.000001
 42,-0.00001479,-0.00000467,0.00000172,0.00000628,-0.00000566,0.0000028
 5,0.00000472,-0.00000536,0.00001383,0.00000316,-0.00000686,0.00000515,
 -0.00002700,0.00000014,-0.00000691,-0.00000754,0.00001457,0.00000985,-
 0.00001374,0.00001251,-0.00000422,0.00001494,0.00001008,0.00000057,-0.
 00001794,0.00001190,0.00000286,-0.00000187,-0.00001000,-0.00000003,-0.
 00000355,-0.00000971,0.00001311,0.00000339,0.00001272,0.00000764,0.000
 00610,-0.00000549,0.00000068,-0.00000973,0.00000047,-0.00001575,-0.000
 00470,0.00000952,0.00001425,-0.00000722,-0.00000578,-0.00000539,-0.000
 00414,0.00000305,-0.00000536,0.00000043,-0.00000013,-0.00000653,0.0000
 0723,-0.00000514,0.00000272,0.00000307,-0.00000657,-0.00000064,0.00000
 935,0.00001426,-0.00000404,-0.00001250,-0.00000691,-0.00000403,0.00001
 076,0.00000468,-0.00001121,0.00000627,0.00000300,0.00000327,-0.0000043
 4,-0.00000128,-0.00000428,0.00000134,-0.00000118,-0.00000433,0.0000064
 5,-0.00000854,-0.00000083,0.00001042,-0.00000667,-0.00000534,0.0000013
 8,-0.00000630,0.00001019,0.00000489,-0.00001110,-0.00000348,0.00000750
 ,0.00000300,0.00000612,0.00000899,0.00000864,-0.00000107,0.00001024,-0
 .00000227,0.00000147,-0.00000747,0.00000483,-0.00000039,-0.00000153,0.
 00000453,0.00000523,0.00000177,0.00000212,0.00000253,0.00000036,-0.000
 00301,-0.00000074,-0.00000068,0.00000240,0.00000171,-0.00000202,-0.000
 00557,0.00000662,-0.00000625,-0.00000212,-0.00000807,0.00000036,-0.000
 00780,0.00000010,0.00000238,0.00000060,-0.00000360,-0.00000051,0.00000
 679,0.00000697,-0.00000431,0.00001044,0.00000373,-0.00000098,0.0000057
 4,0.00000154,0.00000360,0.00000566,0.00000154,-0.00000485,0.00000680,0
 .00000143,0.00000315,-0.00000144,0.00000334,-0.00000184,0.00000478,0.0
 0000380,-0.00000053,-0.00000063,0.00000532,-0.00000382,0.00000300,0.00
 000119,-0.00000433,-0.00000269,0.00000322,-0.00000577,-0.00000140,0.00
 000632,0.00000064,-0.00000382,-0.00000372,-0.00000106,0.00000045,0.000
 00083,0.00000534,-0.00000050,-0.00000243,-0.00000057,-0.00000341,-0.00
 000218,-0.00000305,-0.00000249,-0.00000045,-0.00000065,-0.00000070,-0.
 00000372,-0.00000286,0.00000266,0.00000374,-0.00000668,-0.00001023,-0.
 00001001,0.00000577,-0.00000466,-0.00000472,0.00000967,-0.00000672,0.0
 0000079,0.00000276,-0.00000120,-0.00000420,0.00000033,-0.00000245,-0.0
 0000658,0.00000564,-0.00000771,-0.00000658,0.00000400,0.00000300,-0.00
 000373,-0.00000272,-0.00000659,-0.00000421,0.00000140,-0.00000630,-0.0
 0000146,0.00000050,-0.00000397,-0.00000639,-0.00000284,-0.00000012,0.0
 0000182,0.00000318,0.00000932,-0.00000466,0.00000126,0.00000070,-0.000
 00132,-0.00000173,-0.00000022,-0.00000273,0.00000254,0.00000252,0.0000
 0040,0.00000105,0.00000663,0.00000793,-0.00000212,0.00000895\\\@


 SI MONUMENTUM REQUIRIS, CIRCUMSPICE
     -- FROM SIR CHRISTOPHER WREN'S TOMBSTONE
 Job cpu time:      19 days 10 hours 17 minutes 24.0 seconds.
 File lengths (MBytes):  RWF=  17232 Int=      0 D2E=      0 Chk=     97 Scr=      1
 Normal termination of Gaussian 09 at Sat Mar 26 16:45:26 2016.
