 Entering Gaussian System, Link 0=g09
 Initial command:
 /share/apps//g09/l1.exe "/scratch/Gau-7454.inp" -scrdir="/scratch/"
 Entering Link 1 = /share/apps//g09/l1.exe PID=      7455.
  
 Copyright (c) 1988,1990,1992,1993,1995,1998,2003,2009,2013,
            Gaussian, Inc.  All Rights Reserved.
  
 This is part of the Gaussian(R) 09 program.  It is based on
 the Gaussian(R) 03 system (copyright 2003, Gaussian, Inc.),
 the Gaussian(R) 98 system (copyright 1998, Gaussian, Inc.),
 the Gaussian(R) 94 system (copyright 1995, Gaussian, Inc.),
 the Gaussian 92(TM) system (copyright 1992, Gaussian, Inc.),
 the Gaussian 90(TM) system (copyright 1990, Gaussian, Inc.),
 the Gaussian 88(TM) system (copyright 1988, Gaussian, Inc.),
 the Gaussian 86(TM) system (copyright 1986, Carnegie Mellon
 University), and the Gaussian 82(TM) system (copyright 1983,
 Carnegie Mellon University). Gaussian is a federally registered
 trademark of Gaussian, Inc.
  
 This software contains proprietary and confidential information,
 including trade secrets, belonging to Gaussian, Inc.
  
 This software is provided under written license and may be
 used, copied, transmitted, or stored only in accord with that
 written license.
  
 The following legend is applicable only to US Government
 contracts under FAR:
  
                    RESTRICTED RIGHTS LEGEND
  
 Use, reproduction and disclosure by the US Government is
 subject to restrictions as set forth in subparagraphs (a)
 and (c) of the Commercial Computer Software - Restricted
 Rights clause in FAR 52.227-19.
  
 Gaussian, Inc.
 340 Quinnipiac St., Bldg. 40, Wallingford CT 06492
  
  
 ---------------------------------------------------------------
 Warning -- This program may not be used in any manner that
 competes with the business of Gaussian, Inc. or will provide
 assistance to any competitor of Gaussian, Inc.  The licensee
 of this program is prohibited from giving any competitor of
 Gaussian, Inc. access to this program.  By using this program,
 the user acknowledges that Gaussian, Inc. is engaged in the
 business of creating and licensing software in the field of
 computational chemistry and represents and warrants to the
 licensee that it is not a competitor of Gaussian, Inc. and that
 it will not use this program in any manner prohibited above.
 ---------------------------------------------------------------
  

 Cite this work as:
 Gaussian 09, Revision D.01,
 M. J. Frisch, G. W. Trucks, H. B. Schlegel, G. E. Scuseria, 
 M. A. Robb, J. R. Cheeseman, G. Scalmani, V. Barone, B. Mennucci, 
 G. A. Petersson, H. Nakatsuji, M. Caricato, X. Li, H. P. Hratchian, 
 A. F. Izmaylov, J. Bloino, G. Zheng, J. L. Sonnenberg, M. Hada, 
 M. Ehara, K. Toyota, R. Fukuda, J. Hasegawa, M. Ishida, T. Nakajima, 
 Y. Honda, O. Kitao, H. Nakai, T. Vreven, J. A. Montgomery, Jr., 
 J. E. Peralta, F. Ogliaro, M. Bearpark, J. J. Heyd, E. Brothers, 
 K. N. Kudin, V. N. Staroverov, T. Keith, R. Kobayashi, J. Normand, 
 K. Raghavachari, A. Rendell, J. C. Burant, S. S. Iyengar, J. Tomasi, 
 M. Cossi, N. Rega, J. M. Millam, M. Klene, J. E. Knox, J. B. Cross, 
 V. Bakken, C. Adamo, J. Jaramillo, R. Gomperts, R. E. Stratmann, 
 O. Yazyev, A. J. Austin, R. Cammi, C. Pomelli, J. W. Ochterski, 
 R. L. Martin, K. Morokuma, V. G. Zakrzewski, G. A. Voth, 
 P. Salvador, J. J. Dannenberg, S. Dapprich, A. D. Daniels, 
 O. Farkas, J. B. Foresman, J. V. Ortiz, J. Cioslowski, 
 and D. J. Fox, Gaussian, Inc., Wallingford CT, 2013.
 
 ******************************************
 Gaussian 09:  EM64L-G09RevD.01 24-Apr-2013
                27-Apr-2016 
 ******************************************
 %nproc=20
 Will use up to   20 processors via shared memory.
 %mem=80GB
 %chk=Tri_A131_of.chk
 ----------------------------------------------------------------------
 #P PBE1PBE/6-311+G(d,p) opt=ModRedundant freq optcyc=999 EmpiricalDisp
 ersion=GD3
 ----------------------------------------------------------------------
 1/6=999,14=-1,18=120,19=15,26=3,38=1/1,3;
 2/9=110,12=2,17=6,18=5,40=1/2;
 3/5=4,6=6,7=111,11=2,16=1,25=1,30=1,71=1,74=-13,124=31/1,2,3;
 4//1;
 5/5=2,38=5/2;
 6/7=2,8=2,9=2,10=2,28=1/1;
 7//1,2,3,16;
 1/6=999,14=-1,18=20,19=15,26=3/3(2);
 2/9=110/2;
 99//99;
 2/9=110/2;
 3/5=4,6=6,7=111,11=2,16=1,25=1,30=1,71=1,74=-13,124=31/1,2,3;
 4/5=5,16=3,69=1/1;
 5/5=2,38=5/2;
 7//1,2,3,16;
 1/6=999,14=-1,18=20,19=15,26=3/3(-5);
 2/9=110/2;
 6/7=2,8=2,9=2,10=2,19=2,28=1/1;
 99/9=1/99;
 Leave Link    1 at Wed Apr 27 18:35:18 2016, MaxMem= 10737418240 cpu:         2.1
 (Enter /share/apps//g09/l101.exe)
 -----
 trich
 -----
 Symbolic Z-matrix:
 Charge =  1 Multiplicity = 1
 O                     0.44498  -6.59194   9.44539 
 C                    -0.17856  -5.36991   9.13014 
 C                    -0.16606  -4.4208    10.33133 
 C                     1.25157  -4.20377   10.86948 
 C                     1.87184  -5.56219   11.20913 
 C                     1.79153  -6.47499   9.96895 
 H                    -1.21071  -5.63926   8.85439 
 H                    -0.76862  -4.90516   11.11713 
 H                     1.86305  -3.68935   10.11034 
 H                     2.94561  -5.41937   11.44704 
 H                     2.44488  -6.02523   9.19514 
 O                     1.16157  -6.03086   12.35072 
 O                     1.19427  -3.32693   11.99328 
 O                    -0.76085  -3.1532    9.9869 
 O                     0.44822  -4.67482   8.0465 
 C                     2.31363  -7.88705   10.1968 
 H                     2.14399  -8.47909   9.28157 
 H                     3.40042  -7.82398   10.38018 
 O                     1.63471  -8.47733   11.31603 
 H                     2.01616  -9.35307   11.4936 
 H                     1.2531   -7.00833   12.37377 
 H                     0.98781  -3.89162   12.76724 
 H                    -0.55155  -2.57578   10.75062 
 O                     0.01511  -5.33715   3.92353 
 C                     1.22934  -4.76338   4.39686 
 C                     1.09499  -4.30318   5.84948 
 C                     0.47746  -5.34291   6.76697 
 C                    -0.89433  -5.73155   6.20397 
 C                    -0.6944   -6.25544   4.76521 
 H                     2.07816  -5.46296   4.28765 
 H                     0.3984   -3.45338   5.83196 
 H                     1.10127  -6.25257   6.83758 
 H                    -1.32036  -6.56502   6.79269 
 H                    -0.1518   -7.22033   4.82896 
 O                    -1.7886   -4.60655   6.25739 
 O                     2.37832  -3.85283   6.29502 
 O                     1.54459  -3.68676   3.54519 
 C                    -2.02928  -6.4904    4.04589 
 H                    -1.83137  -6.86434   3.02984 
 H                    -2.61298  -7.25113   4.58497 
 O                    -2.81894  -5.29397   3.99721 
 H                    -2.47396  -4.71942   3.24975 
 H                    -2.36476  -4.68967   5.42808 
 H                     2.31704  -3.8014    7.2682 
 O                    -0.18763  -1.25128   1.45169 
 C                    -0.82084  -0.4446    2.39173 
 C                     0.0177   -0.20063   3.66773 
 C                     1.02255  -1.32879   3.9333 
 C                     0.52053  -2.67076   3.38958 
 C                     0.24248  -2.57426   1.87555 
 H                    -0.99257   0.52004   1.88779 
 H                    -0.67774  -0.18801   4.52755 
 H                     1.96936  -1.07991   3.42248 
 H                     1.20508  -2.72845   1.36138 
 H                    -0.39639  -2.97905   3.91566 
 O                     1.23291  -1.34022   5.36305 
 O                     0.64027   1.06988   3.51775 
 O                    -2.0867   -1.05193   2.74751 
 C                    -0.72546  -3.63912   1.35283 
 H                    -0.87627  -3.45788   0.27618 
 H                    -0.27162  -4.62964   1.48469 
 O                    -1.99376  -3.6687    2.02363 
 H                    -2.28349  -2.73183   2.14098 
 H                     1.96903  -1.96252   5.5581 
 H                     1.21992   1.21799   4.28636 
 C                    -3.09585  -0.14456   3.23709 
 H                    -2.61998   0.66626   3.81468 
 H                    -3.61383   0.31923   2.38071 
 C                    -4.07427  -0.9373    4.09599 
 H                    -4.55163  -1.70498   3.46697 
 H                    -4.88174  -0.25647   4.41153 
 C                    -3.44054  -1.62025   5.31884 
 H                    -4.17953  -2.30802   5.76078 
 H                    -2.60738  -2.24742   4.96195 
 C                    -2.9514   -0.64465   6.39774 
 H                    -2.19256   0.04517   5.99224 
 H                    -3.78758  -0.00334   6.72099 
 C                    -2.39534  -1.29944   7.65743 
 H                    -3.1381   -1.95225   8.13657 
 H                    -2.09679  -0.53742   8.38956 
 N                    -1.19186  -2.16345   7.40262 
 H                    -1.44468  -3.05226   6.88599 
 H                    -0.80085  -2.49469   8.31952 
 H                    -0.45371  -1.67844   6.86083 
 
 The following ModRedundant input section has been read:
 B      45      84 B                                                           
 B      58      84 B                                                           
 B      56      84 B                                                           
 B      41      82 B                                                           
 B      62      82 B                                                           
 B      35      82 B                                                           
 B      13      83 B                                                           
 B      19      83 B                                                           
 B      14      83 B                                                           
 
 NAtoms=     84 NQM=       84 NQMF=       0 NMMI=      0 NMMIF=      0
                NMic=       0 NMicF=      0.
                    Isotopes and Nuclear Properties:
 (Nuclear quadrupole moments (NQMom) in fm**2, nuclear magnetic moments (NMagM)
  in nuclear magnetons)

  Atom         1           2           3           4           5           6           7           8           9          10
 IAtWgt=          16          12          12          12          12          12           1           1           1           1
 AtmWgt=  15.9949146  12.0000000  12.0000000  12.0000000  12.0000000  12.0000000   1.0078250   1.0078250   1.0078250   1.0078250
 NucSpn=           0           0           0           0           0           0           1           1           1           1
 AtZEff=   0.0000000   0.0000000   0.0000000   0.0000000   0.0000000   0.0000000   0.0000000   0.0000000   0.0000000   0.0000000
 NQMom=    0.0000000   0.0000000   0.0000000   0.0000000   0.0000000   0.0000000   0.0000000   0.0000000   0.0000000   0.0000000
 NMagM=    0.0000000   0.0000000   0.0000000   0.0000000   0.0000000   0.0000000   2.7928460   2.7928460   2.7928460   2.7928460
 AtZNuc=   8.0000000   6.0000000   6.0000000   6.0000000   6.0000000   6.0000000   1.0000000   1.0000000   1.0000000   1.0000000

  Atom        11          12          13          14          15          16          17          18          19          20
 IAtWgt=           1          16          16          16          16          12           1           1          16           1
 AtmWgt=   1.0078250  15.9949146  15.9949146  15.9949146  15.9949146  12.0000000   1.0078250   1.0078250  15.9949146   1.0078250
 NucSpn=           1           0           0           0           0           0           1           1           0           1
 AtZEff=   0.0000000   0.0000000   0.0000000   0.0000000   0.0000000   0.0000000   0.0000000   0.0000000   0.0000000   0.0000000
 NQMom=    0.0000000   0.0000000   0.0000000   0.0000000   0.0000000   0.0000000   0.0000000   0.0000000   0.0000000   0.0000000
 NMagM=    2.7928460   0.0000000   0.0000000   0.0000000   0.0000000   0.0000000   2.7928460   2.7928460   0.0000000   2.7928460
 AtZNuc=   1.0000000   8.0000000   8.0000000   8.0000000   8.0000000   6.0000000   1.0000000   1.0000000   8.0000000   1.0000000

  Atom        21          22          23          24          25          26          27          28          29          30
 IAtWgt=           1           1           1          16          12          12          12          12          12           1
 AtmWgt=   1.0078250   1.0078250   1.0078250  15.9949146  12.0000000  12.0000000  12.0000000  12.0000000  12.0000000   1.0078250
 NucSpn=           1           1           1           0           0           0           0           0           0           1
 AtZEff=   0.0000000   0.0000000   0.0000000   0.0000000   0.0000000   0.0000000   0.0000000   0.0000000   0.0000000   0.0000000
 NQMom=    0.0000000   0.0000000   0.0000000   0.0000000   0.0000000   0.0000000   0.0000000   0.0000000   0.0000000   0.0000000
 NMagM=    2.7928460   2.7928460   2.7928460   0.0000000   0.0000000   0.0000000   0.0000000   0.0000000   0.0000000   2.7928460
 AtZNuc=   1.0000000   1.0000000   1.0000000   8.0000000   6.0000000   6.0000000   6.0000000   6.0000000   6.0000000   1.0000000

  Atom        31          32          33          34          35          36          37          38          39          40
 IAtWgt=           1           1           1           1          16          16          16          12           1           1
 AtmWgt=   1.0078250   1.0078250   1.0078250   1.0078250  15.9949146  15.9949146  15.9949146  12.0000000   1.0078250   1.0078250
 NucSpn=           1           1           1           1           0           0           0           0           1           1
 AtZEff=   0.0000000   0.0000000   0.0000000   0.0000000   0.0000000   0.0000000   0.0000000   0.0000000   0.0000000   0.0000000
 NQMom=    0.0000000   0.0000000   0.0000000   0.0000000   0.0000000   0.0000000   0.0000000   0.0000000   0.0000000   0.0000000
 NMagM=    2.7928460   2.7928460   2.7928460   2.7928460   0.0000000   0.0000000   0.0000000   0.0000000   2.7928460   2.7928460
 AtZNuc=   1.0000000   1.0000000   1.0000000   1.0000000   8.0000000   8.0000000   8.0000000   6.0000000   1.0000000   1.0000000

  Atom        41          42          43          44          45          46          47          48          49          50
 IAtWgt=          16           1           1           1          16          12          12          12          12          12
 AtmWgt=  15.9949146   1.0078250   1.0078250   1.0078250  15.9949146  12.0000000  12.0000000  12.0000000  12.0000000  12.0000000
 NucSpn=           0           1           1           1           0           0           0           0           0           0
 AtZEff=   0.0000000   0.0000000   0.0000000   0.0000000   0.0000000   0.0000000   0.0000000   0.0000000   0.0000000   0.0000000
 NQMom=    0.0000000   0.0000000   0.0000000   0.0000000   0.0000000   0.0000000   0.0000000   0.0000000   0.0000000   0.0000000
 NMagM=    0.0000000   2.7928460   2.7928460   2.7928460   0.0000000   0.0000000   0.0000000   0.0000000   0.0000000   0.0000000
 AtZNuc=   8.0000000   1.0000000   1.0000000   1.0000000   8.0000000   6.0000000   6.0000000   6.0000000   6.0000000   6.0000000

  Atom        51          52          53          54          55          56          57          58          59          60
 IAtWgt=           1           1           1           1           1          16          16          16          12           1
 AtmWgt=   1.0078250   1.0078250   1.0078250   1.0078250   1.0078250  15.9949146  15.9949146  15.9949146  12.0000000   1.0078250
 NucSpn=           1           1           1           1           1           0           0           0           0           1
 AtZEff=   0.0000000   0.0000000   0.0000000   0.0000000   0.0000000   0.0000000   0.0000000   0.0000000   0.0000000   0.0000000
 NQMom=    0.0000000   0.0000000   0.0000000   0.0000000   0.0000000   0.0000000   0.0000000   0.0000000   0.0000000   0.0000000
 NMagM=    2.7928460   2.7928460   2.7928460   2.7928460   2.7928460   0.0000000   0.0000000   0.0000000   0.0000000   2.7928460
 AtZNuc=   1.0000000   1.0000000   1.0000000   1.0000000   1.0000000   8.0000000   8.0000000   8.0000000   6.0000000   1.0000000

  Atom        61          62          63          64          65          66          67          68          69          70
 IAtWgt=           1          16           1           1           1          12           1           1          12           1
 AtmWgt=   1.0078250  15.9949146   1.0078250   1.0078250   1.0078250  12.0000000   1.0078250   1.0078250  12.0000000   1.0078250
 NucSpn=           1           0           1           1           1           0           1           1           0           1
 AtZEff=   0.0000000   0.0000000   0.0000000   0.0000000   0.0000000   0.0000000   0.0000000   0.0000000   0.0000000   0.0000000
 NQMom=    0.0000000   0.0000000   0.0000000   0.0000000   0.0000000   0.0000000   0.0000000   0.0000000   0.0000000   0.0000000
 NMagM=    2.7928460   0.0000000   2.7928460   2.7928460   2.7928460   0.0000000   2.7928460   2.7928460   0.0000000   2.7928460
 AtZNuc=   1.0000000   8.0000000   1.0000000   1.0000000   1.0000000   6.0000000   1.0000000   1.0000000   6.0000000   1.0000000

  Atom        71          72          73          74          75          76          77          78          79          80
 IAtWgt=           1          12           1           1          12           1           1          12           1           1
 AtmWgt=   1.0078250  12.0000000   1.0078250   1.0078250  12.0000000   1.0078250   1.0078250  12.0000000   1.0078250   1.0078250
 NucSpn=           1           0           1           1           0           1           1           0           1           1
 AtZEff=   0.0000000   0.0000000   0.0000000   0.0000000   0.0000000   0.0000000   0.0000000   0.0000000   0.0000000   0.0000000
 NQMom=    0.0000000   0.0000000   0.0000000   0.0000000   0.0000000   0.0000000   0.0000000   0.0000000   0.0000000   0.0000000
 NMagM=    2.7928460   0.0000000   2.7928460   2.7928460   0.0000000   2.7928460   2.7928460   0.0000000   2.7928460   2.7928460
 AtZNuc=   1.0000000   6.0000000   1.0000000   1.0000000   6.0000000   1.0000000   1.0000000   6.0000000   1.0000000   1.0000000

  Atom        81          82          83          84
 IAtWgt=          14           1           1           1
 AtmWgt=  14.0030740   1.0078250   1.0078250   1.0078250
 NucSpn=           2           1           1           1
 AtZEff=   0.0000000   0.0000000   0.0000000   0.0000000
 NQMom=    2.0440000   0.0000000   0.0000000   0.0000000
 NMagM=    0.4037610   2.7928460   2.7928460   2.7928460
 AtZNuc=   7.0000000   1.0000000   1.0000000   1.0000000
 Leave Link  101 at Wed Apr 27 18:35:19 2016, MaxMem= 10737418240 cpu:         5.4
 (Enter /share/apps//g09/l103.exe)

 GradGradGradGradGradGradGradGradGradGradGradGradGradGradGradGradGradGrad
 Berny optimization.
 Initialization pass.
                           ----------------------------
                           !    Initial Parameters    !
                           ! (Angstroms and Degrees)  !
 --------------------------                            --------------------------
 ! Name  Definition              Value          Derivative Info.                !
 --------------------------------------------------------------------------------
 ! R1    R(1,2)                  1.4077         estimate D2E/DX2                !
 ! R2    R(1,6)                  1.4495         estimate D2E/DX2                !
 ! R3    R(2,3)                  1.531          estimate D2E/DX2                !
 ! R4    R(2,7)                  1.1018         estimate D2E/DX2                !
 ! R5    R(2,15)                 1.4319         estimate D2E/DX2                !
 ! R6    R(3,4)                  1.5318         estimate D2E/DX2                !
 ! R7    R(3,8)                  1.1023         estimate D2E/DX2                !
 ! R8    R(3,14)                 1.4419         estimate D2E/DX2                !
 ! R9    R(4,5)                  1.5315         estimate D2E/DX2                !
 ! R10   R(4,9)                  1.1022         estimate D2E/DX2                !
 ! R11   R(4,13)                 1.4266         estimate D2E/DX2                !
 ! R12   R(5,6)                  1.542          estimate D2E/DX2                !
 ! R13   R(5,10)                 1.109          estimate D2E/DX2                !
 ! R14   R(5,12)                 1.4239         estimate D2E/DX2                !
 ! R15   R(6,11)                 1.1081         estimate D2E/DX2                !
 ! R16   R(6,16)                 1.5226         estimate D2E/DX2                !
 ! R17   R(12,21)                0.982          estimate D2E/DX2                !
 ! R18   R(13,22)                0.9801         estimate D2E/DX2                !
 ! R19   R(13,83)                4.2626         estimate D2E/DX2                !
 ! R20   R(14,23)                0.98           estimate D2E/DX2                !
 ! R21   R(14,83)                1.7932         estimate D2E/DX2                !
 ! R22   R(15,27)                1.4437         estimate D2E/DX2                !
 ! R23   R(16,17)                1.1031         estimate D2E/DX2                !
 ! R24   R(16,18)                1.104          estimate D2E/DX2                !
 ! R25   R(16,19)                1.436          estimate D2E/DX2                !
 ! R26   R(19,20)                0.9716         estimate D2E/DX2                !
 ! R27   R(19,83)                7.1206         estimate D2E/DX2                !
 ! R28   R(24,25)                1.4239         estimate D2E/DX2                !
 ! R29   R(24,29)                1.4336         estimate D2E/DX2                !
 ! R30   R(25,26)                1.5297         estimate D2E/DX2                !
 ! R31   R(25,30)                1.1054         estimate D2E/DX2                !
 ! R32   R(25,37)                1.4085         estimate D2E/DX2                !
 ! R33   R(26,27)                1.5179         estimate D2E/DX2                !
 ! R34   R(26,31)                1.099          estimate D2E/DX2                !
 ! R35   R(26,36)                1.4312         estimate D2E/DX2                !
 ! R36   R(27,28)                1.5329         estimate D2E/DX2                !
 ! R37   R(27,32)                1.1053         estimate D2E/DX2                !
 ! R38   R(28,29)                1.5442         estimate D2E/DX2                !
 ! R39   R(28,33)                1.1058         estimate D2E/DX2                !
 ! R40   R(28,35)                1.4381         estimate D2E/DX2                !
 ! R41   R(29,34)                1.1088         estimate D2E/DX2                !
 ! R42   R(29,38)                1.5344         estimate D2E/DX2                !
 ! R43   R(35,43)                1.0132         estimate D2E/DX2                !
 ! R44   R(35,82)                1.7115         estimate D2E/DX2                !
 ! R45   R(36,44)                0.9765         estimate D2E/DX2                !
 ! R46   R(37,49)                1.4509         estimate D2E/DX2                !
 ! R47   R(38,39)                1.1006         estimate D2E/DX2                !
 ! R48   R(38,40)                1.1            estimate D2E/DX2                !
 ! R49   R(38,41)                1.4344         estimate D2E/DX2                !
 ! R50   R(41,42)                1.0039         estimate D2E/DX2                !
 ! R51   R(41,82)                3.9063         estimate D2E/DX2                !
 ! R52   R(45,46)                1.3912         estimate D2E/DX2                !
 ! R53   R(45,50)                1.4543         estimate D2E/DX2                !
 ! R54   R(45,84)                5.4325         estimate D2E/DX2                !
 ! R55   R(46,47)                1.5462         estimate D2E/DX2                !
 ! R56   R(46,51)                1.1018         estimate D2E/DX2                !
 ! R57   R(46,58)                1.4484         estimate D2E/DX2                !
 ! R58   R(47,48)                1.5339         estimate D2E/DX2                !
 ! R59   R(47,52)                1.1059         estimate D2E/DX2                !
 ! R60   R(47,57)                1.4228         estimate D2E/DX2                !
 ! R61   R(48,49)                1.5325         estimate D2E/DX2                !
 ! R62   R(48,53)                1.1042         estimate D2E/DX2                !
 ! R63   R(48,56)                1.4452         estimate D2E/DX2                !
 ! R64   R(49,50)                1.5424         estimate D2E/DX2                !
 ! R65   R(49,55)                1.1012         estimate D2E/DX2                !
 ! R66   R(50,54)                1.1022         estimate D2E/DX2                !
 ! R67   R(50,59)                1.531          estimate D2E/DX2                !
 ! R68   R(56,64)                0.9835         estimate D2E/DX2                !
 ! R69   R(56,84)                2.2809         estimate D2E/DX2                !
 ! R70   R(57,65)                0.974          estimate D2E/DX2                !
 ! R71   R(58,66)                1.4427         estimate D2E/DX2                !
 ! R72   R(58,84)                4.4697         estimate D2E/DX2                !
 ! R73   R(59,60)                1.1022         estimate D2E/DX2                !
 ! R74   R(59,61)                1.0975         estimate D2E/DX2                !
 ! R75   R(59,62)                1.4351         estimate D2E/DX2                !
 ! R76   R(62,63)                0.9876         estimate D2E/DX2                !
 ! R77   R(62,82)                4.9319         estimate D2E/DX2                !
 ! R78   R(66,67)                1.1034         estimate D2E/DX2                !
 ! R79   R(66,68)                1.1031         estimate D2E/DX2                !
 ! R80   R(66,69)                1.5243         estimate D2E/DX2                !
 ! R81   R(69,70)                1.1013         estimate D2E/DX2                !
 ! R82   R(69,71)                1.1023         estimate D2E/DX2                !
 ! R83   R(69,72)                1.5373         estimate D2E/DX2                !
 ! R84   R(72,73)                1.102          estimate D2E/DX2                !
 ! R85   R(72,74)                1.1022         estimate D2E/DX2                !
 ! R86   R(72,75)                1.5346         estimate D2E/DX2                !
 ! R87   R(75,76)                1.1028         estimate D2E/DX2                !
 ! R88   R(75,77)                1.1023         estimate D2E/DX2                !
 ! R89   R(75,78)                1.5247         estimate D2E/DX2                !
 ! R90   R(78,79)                1.0988         estimate D2E/DX2                !
 ! R91   R(78,80)                1.0981         estimate D2E/DX2                !
 ! R92   R(78,81)                1.5033         estimate D2E/DX2                !
 ! R93   R(81,82)                1.0587         estimate D2E/DX2                !
 ! R94   R(81,83)                1.0504         estimate D2E/DX2                !
 ! R95   R(81,84)                1.0362         estimate D2E/DX2                !
 ! A1    A(2,1,6)              114.9832         estimate D2E/DX2                !
 ! A2    A(1,2,3)              111.0302         estimate D2E/DX2                !
 ! A3    A(1,2,7)              104.998          estimate D2E/DX2                !
 ! A4    A(1,2,15)             113.3913         estimate D2E/DX2                !
 ! A5    A(3,2,7)              110.8286         estimate D2E/DX2                !
 ! A6    A(3,2,15)             106.8138         estimate D2E/DX2                !
 ! A7    A(7,2,15)             109.8363         estimate D2E/DX2                !
 ! A8    A(2,3,4)              111.7798         estimate D2E/DX2                !
 ! A9    A(2,3,8)              106.4057         estimate D2E/DX2                !
 ! A10   A(2,3,14)             110.7448         estimate D2E/DX2                !
 ! A11   A(4,3,8)              108.5237         estimate D2E/DX2                !
 ! A12   A(4,3,14)             109.9447         estimate D2E/DX2                !
 ! A13   A(8,3,14)             109.3332         estimate D2E/DX2                !
 ! A14   A(3,4,5)              109.0912         estimate D2E/DX2                !
 ! A15   A(3,4,9)              109.7302         estimate D2E/DX2                !
 ! A16   A(3,4,13)             109.0671         estimate D2E/DX2                !
 ! A17   A(5,4,9)              110.0013         estimate D2E/DX2                !
 ! A18   A(5,4,13)             112.7529         estimate D2E/DX2                !
 ! A19   A(9,4,13)             106.1403         estimate D2E/DX2                !
 ! A20   A(4,5,6)              109.0025         estimate D2E/DX2                !
 ! A21   A(4,5,10)             108.9949         estimate D2E/DX2                !
 ! A22   A(4,5,12)             105.5299         estimate D2E/DX2                !
 ! A23   A(6,5,10)             107.4089         estimate D2E/DX2                !
 ! A24   A(6,5,12)             115.0879         estimate D2E/DX2                !
 ! A25   A(10,5,12)            110.6933         estimate D2E/DX2                !
 ! A26   A(1,6,5)              112.7466         estimate D2E/DX2                !
 ! A27   A(1,6,11)             109.1625         estimate D2E/DX2                !
 ! A28   A(1,6,16)             107.3237         estimate D2E/DX2                !
 ! A29   A(5,6,11)             106.8975         estimate D2E/DX2                !
 ! A30   A(5,6,16)             114.2529         estimate D2E/DX2                !
 ! A31   A(11,6,16)            106.1843         estimate D2E/DX2                !
 ! A32   A(5,12,21)            107.455          estimate D2E/DX2                !
 ! A33   A(4,13,22)            106.0466         estimate D2E/DX2                !
 ! A34   A(4,13,83)             57.3066         estimate D2E/DX2                !
 ! A35   A(22,13,83)           133.9885         estimate D2E/DX2                !
 ! A36   A(3,14,23)            104.1054         estimate D2E/DX2                !
 ! A37   A(3,14,83)            123.6518         estimate D2E/DX2                !
 ! A38   A(23,14,83)           120.8645         estimate D2E/DX2                !
 ! A39   A(2,15,27)            117.0614         estimate D2E/DX2                !
 ! A40   A(6,16,17)            108.713          estimate D2E/DX2                !
 ! A41   A(6,16,18)            108.0252         estimate D2E/DX2                !
 ! A42   A(6,16,19)            109.6169         estimate D2E/DX2                !
 ! A43   A(17,16,18)           108.6547         estimate D2E/DX2                !
 ! A44   A(17,16,19)           110.6912         estimate D2E/DX2                !
 ! A45   A(18,16,19)           111.0667         estimate D2E/DX2                !
 ! A46   A(16,19,20)           109.1077         estimate D2E/DX2                !
 ! A47   A(16,19,83)            59.2261         estimate D2E/DX2                !
 ! A48   A(25,24,29)           119.0116         estimate D2E/DX2                !
 ! A49   A(24,25,26)           111.2226         estimate D2E/DX2                !
 ! A50   A(24,25,30)           111.5277         estimate D2E/DX2                !
 ! A51   A(24,25,37)           107.3294         estimate D2E/DX2                !
 ! A52   A(26,25,30)           110.5895         estimate D2E/DX2                !
 ! A53   A(26,25,37)           111.3401         estimate D2E/DX2                !
 ! A54   A(30,25,37)           104.6051         estimate D2E/DX2                !
 ! A55   A(25,26,27)           113.8059         estimate D2E/DX2                !
 ! A56   A(25,26,31)           105.853          estimate D2E/DX2                !
 ! A57   A(25,26,36)           108.152          estimate D2E/DX2                !
 ! A58   A(27,26,31)           106.3456         estimate D2E/DX2                !
 ! A59   A(27,26,36)           113.0893         estimate D2E/DX2                !
 ! A60   A(31,26,36)           109.2699         estimate D2E/DX2                !
 ! A61   A(15,27,26)           103.1179         estimate D2E/DX2                !
 ! A62   A(15,27,28)           115.1315         estimate D2E/DX2                !
 ! A63   A(15,27,32)           109.613          estimate D2E/DX2                !
 ! A64   A(26,27,28)           108.4046         estimate D2E/DX2                !
 ! A65   A(26,27,32)           111.8849         estimate D2E/DX2                !
 ! A66   A(28,27,32)           108.6555         estimate D2E/DX2                !
 ! A67   A(27,28,29)           108.2011         estimate D2E/DX2                !
 ! A68   A(27,28,33)           109.8973         estimate D2E/DX2                !
 ! A69   A(27,28,35)           110.1513         estimate D2E/DX2                !
 ! A70   A(29,28,33)           106.8711         estimate D2E/DX2                !
 ! A71   A(29,28,35)           112.366          estimate D2E/DX2                !
 ! A72   A(33,28,35)           109.2853         estimate D2E/DX2                !
 ! A73   A(24,29,28)           113.1913         estimate D2E/DX2                !
 ! A74   A(24,29,34)           110.4249         estimate D2E/DX2                !
 ! A75   A(24,29,38)           104.6795         estimate D2E/DX2                !
 ! A76   A(28,29,34)           107.7593         estimate D2E/DX2                !
 ! A77   A(28,29,38)           112.092          estimate D2E/DX2                !
 ! A78   A(34,29,38)           108.6271         estimate D2E/DX2                !
 ! A79   A(28,35,43)           105.012          estimate D2E/DX2                !
 ! A80   A(28,35,82)           126.8056         estimate D2E/DX2                !
 ! A81   A(43,35,82)           119.2998         estimate D2E/DX2                !
 ! A82   A(26,36,44)           105.6978         estimate D2E/DX2                !
 ! A83   A(25,37,49)           116.2399         estimate D2E/DX2                !
 ! A84   A(29,38,39)           109.169          estimate D2E/DX2                !
 ! A85   A(29,38,40)           109.7416         estimate D2E/DX2                !
 ! A86   A(29,38,41)           111.5379         estimate D2E/DX2                !
 ! A87   A(39,38,40)           108.2321         estimate D2E/DX2                !
 ! A88   A(39,38,41)           110.5523         estimate D2E/DX2                !
 ! A89   A(40,38,41)           107.5389         estimate D2E/DX2                !
 ! A90   A(38,41,42)           108.2684         estimate D2E/DX2                !
 ! A91   A(38,41,82)           105.0643         estimate D2E/DX2                !
 ! A92   A(42,41,82)            95.813          estimate D2E/DX2                !
 ! A93   A(46,45,50)           117.7217         estimate D2E/DX2                !
 ! A94   A(46,45,84)            49.4953         estimate D2E/DX2                !
 ! A95   A(50,45,84)            69.6808         estimate D2E/DX2                !
 ! A96   A(45,46,47)           113.7204         estimate D2E/DX2                !
 ! A97   A(45,46,51)           105.6377         estimate D2E/DX2                !
 ! A98   A(45,46,58)           108.7018         estimate D2E/DX2                !
 ! A99   A(47,46,51)           108.8944         estimate D2E/DX2                !
 ! A100  A(47,46,58)           109.7198         estimate D2E/DX2                !
 ! A101  A(51,46,58)           110.0745         estimate D2E/DX2                !
 ! A102  A(46,47,48)           112.4626         estimate D2E/DX2                !
 ! A103  A(46,47,52)           107.5997         estimate D2E/DX2                !
 ! A104  A(46,47,57)           106.9303         estimate D2E/DX2                !
 ! A105  A(48,47,52)           106.6019         estimate D2E/DX2                !
 ! A106  A(48,47,57)           112.8525         estimate D2E/DX2                !
 ! A107  A(52,47,57)           110.2993         estimate D2E/DX2                !
 ! A108  A(47,48,49)           111.593          estimate D2E/DX2                !
 ! A109  A(47,48,53)           108.4111         estimate D2E/DX2                !
 ! A110  A(47,48,56)           105.81           estimate D2E/DX2                !
 ! A111  A(49,48,53)           108.3077         estimate D2E/DX2                !
 ! A112  A(49,48,56)           113.0641         estimate D2E/DX2                !
 ! A113  A(53,48,56)           109.5504         estimate D2E/DX2                !
 ! A114  A(37,49,48)           110.1164         estimate D2E/DX2                !
 ! A115  A(37,49,50)           106.0411         estimate D2E/DX2                !
 ! A116  A(37,49,55)           109.9028         estimate D2E/DX2                !
 ! A117  A(48,49,50)           110.6429         estimate D2E/DX2                !
 ! A118  A(48,49,55)           110.3916         estimate D2E/DX2                !
 ! A119  A(50,49,55)           109.6563         estimate D2E/DX2                !
 ! A120  A(45,50,49)           113.3493         estimate D2E/DX2                !
 ! A121  A(45,50,54)           104.4542         estimate D2E/DX2                !
 ! A122  A(45,50,59)           110.2571         estimate D2E/DX2                !
 ! A123  A(49,50,54)           106.9622         estimate D2E/DX2                !
 ! A124  A(49,50,59)           113.9286         estimate D2E/DX2                !
 ! A125  A(54,50,59)           107.1926         estimate D2E/DX2                !
 ! A126  A(48,56,64)           108.0695         estimate D2E/DX2                !
 ! A127  A(48,56,84)           122.9011         estimate D2E/DX2                !
 ! A128  A(64,56,84)           109.2337         estimate D2E/DX2                !
 ! A129  A(47,57,65)           108.2409         estimate D2E/DX2                !
 ! A130  A(46,58,66)           115.5291         estimate D2E/DX2                !
 ! A131  A(46,58,84)            88.0242         estimate D2E/DX2                !
 ! A132  A(66,58,84)            91.8005         estimate D2E/DX2                !
 ! A133  A(50,59,60)           107.7971         estimate D2E/DX2                !
 ! A134  A(50,59,61)           108.9819         estimate D2E/DX2                !
 ! A135  A(50,59,62)           114.4242         estimate D2E/DX2                !
 ! A136  A(60,59,61)           108.8057         estimate D2E/DX2                !
 ! A137  A(60,59,62)           109.8204         estimate D2E/DX2                !
 ! A138  A(61,59,62)           106.9002         estimate D2E/DX2                !
 ! A139  A(59,62,63)           107.1726         estimate D2E/DX2                !
 ! A140  A(59,62,82)           111.0921         estimate D2E/DX2                !
 ! A141  A(63,62,82)            78.2849         estimate D2E/DX2                !
 ! A142  A(58,66,67)           109.7631         estimate D2E/DX2                !
 ! A143  A(58,66,68)           109.235          estimate D2E/DX2                !
 ! A144  A(58,66,69)           108.2469         estimate D2E/DX2                !
 ! A145  A(67,66,68)           107.4544         estimate D2E/DX2                !
 ! A146  A(67,66,69)           111.3485         estimate D2E/DX2                !
 ! A147  A(68,66,69)           110.7754         estimate D2E/DX2                !
 ! A148  A(66,69,70)           108.5973         estimate D2E/DX2                !
 ! A149  A(66,69,71)           108.0759         estimate D2E/DX2                !
 ! A150  A(66,69,72)           114.497          estimate D2E/DX2                !
 ! A151  A(70,69,71)           106.0524         estimate D2E/DX2                !
 ! A152  A(70,69,72)           108.8646         estimate D2E/DX2                !
 ! A153  A(71,69,72)           110.4048         estimate D2E/DX2                !
 ! A154  A(69,72,73)           108.6516         estimate D2E/DX2                !
 ! A155  A(69,72,74)           107.8679         estimate D2E/DX2                !
 ! A156  A(69,72,75)           114.0916         estimate D2E/DX2                !
 ! A157  A(73,72,74)           106.3569         estimate D2E/DX2                !
 ! A158  A(73,72,75)           109.1811         estimate D2E/DX2                !
 ! A159  A(74,72,75)           110.3921         estimate D2E/DX2                !
 ! A160  A(72,75,76)           111.0068         estimate D2E/DX2                !
 ! A161  A(72,75,77)           109.5272         estimate D2E/DX2                !
 ! A162  A(72,75,78)           115.0914         estimate D2E/DX2                !
 ! A163  A(76,75,77)           105.4206         estimate D2E/DX2                !
 ! A164  A(76,75,78)           108.7519         estimate D2E/DX2                !
 ! A165  A(77,75,78)           106.5132         estimate D2E/DX2                !
 ! A166  A(75,78,79)           111.6457         estimate D2E/DX2                !
 ! A167  A(75,78,80)           110.608          estimate D2E/DX2                !
 ! A168  A(75,78,81)           113.5004         estimate D2E/DX2                !
 ! A169  A(79,78,80)           107.7777         estimate D2E/DX2                !
 ! A170  A(79,78,81)           105.879          estimate D2E/DX2                !
 ! A171  A(80,78,81)           107.1097         estimate D2E/DX2                !
 ! A172  A(78,81,82)           111.9666         estimate D2E/DX2                !
 ! A173  A(78,81,83)           109.3479         estimate D2E/DX2                !
 ! A174  A(78,81,84)           112.9494         estimate D2E/DX2                !
 ! A175  A(82,81,83)           104.4848         estimate D2E/DX2                !
 ! A176  A(82,81,84)           107.9349         estimate D2E/DX2                !
 ! A177  A(83,81,84)           109.807          estimate D2E/DX2                !
 ! A178  A(35,82,41)            30.2916         estimate D2E/DX2                !
 ! A179  A(35,82,62)            60.1337         estimate D2E/DX2                !
 ! A180  A(41,82,62)            32.8612         estimate D2E/DX2                !
 ! A181  A(41,82,81)           157.9248         estimate D2E/DX2                !
 ! A182  A(62,82,81)           127.7799         estimate D2E/DX2                !
 ! A183  A(13,83,14)            27.9261         estimate D2E/DX2                !
 ! A184  A(13,83,19)            46.6206         estimate D2E/DX2                !
 ! A185  A(14,83,19)            44.9695         estimate D2E/DX2                !
 ! A186  A(14,83,81)           159.358          estimate D2E/DX2                !
 ! A187  A(19,83,81)           139.4309         estimate D2E/DX2                !
 ! A188  A(45,84,56)            45.4348         estimate D2E/DX2                !
 ! A189  A(45,84,58)            24.5734         estimate D2E/DX2                !
 ! A190  A(45,84,81)           126.3225         estimate D2E/DX2                !
 ! A191  A(56,84,58)            69.2107         estimate D2E/DX2                !
 ! A192  A(56,84,81)           159.9759         estimate D2E/DX2                !
 ! A193  A(58,84,81)           106.6503         estimate D2E/DX2                !
 ! A194  L(20,19,83,16,-1)     168.3338         estimate D2E/DX2                !
 ! A195  L(35,82,81,41,-1)     188.2164         estimate D2E/DX2                !
 ! A196  L(13,83,81,14,-1)     187.2841         estimate D2E/DX2                !
 ! A197  L(20,19,83,16,-2)     170.632          estimate D2E/DX2                !
 ! A198  L(35,82,81,41,-2)     178.2256         estimate D2E/DX2                !
 ! A199  L(13,83,81,14,-2)     167.6957         estimate D2E/DX2                !
 ! D1    D(6,1,2,3)            -54.3947         estimate D2E/DX2                !
 ! D2    D(6,1,2,7)           -174.2219         estimate D2E/DX2                !
 ! D3    D(6,1,2,15)            65.8676         estimate D2E/DX2                !
 ! D4    D(2,1,6,5)             55.4554         estimate D2E/DX2                !
 ! D5    D(2,1,6,11)           -63.1881         estimate D2E/DX2                !
 ! D6    D(2,1,6,16)          -177.8644         estimate D2E/DX2                !
 ! D7    D(1,2,3,4)             54.869          estimate D2E/DX2                !
 ! D8    D(1,2,3,8)            -63.4433         estimate D2E/DX2                !
 ! D9    D(1,2,3,14)           177.835          estimate D2E/DX2                !
 ! D10   D(7,2,3,4)            171.1584         estimate D2E/DX2                !
 ! D11   D(7,2,3,8)             52.846          estimate D2E/DX2                !
 ! D12   D(7,2,3,14)           -65.8757         estimate D2E/DX2                !
 ! D13   D(15,2,3,4)           -69.2223         estimate D2E/DX2                !
 ! D14   D(15,2,3,8)           172.4654         estimate D2E/DX2                !
 ! D15   D(15,2,3,14)           53.7437         estimate D2E/DX2                !
 ! D16   D(1,2,15,27)           61.2737         estimate D2E/DX2                !
 ! D17   D(3,2,15,27)         -176.0995         estimate D2E/DX2                !
 ! D18   D(7,2,15,27)          -55.8417         estimate D2E/DX2                !
 ! D19   D(2,3,4,5)            -55.746          estimate D2E/DX2                !
 ! D20   D(2,3,4,9)             64.8282         estimate D2E/DX2                !
 ! D21   D(2,3,4,13)          -179.2952         estimate D2E/DX2                !
 ! D22   D(8,3,4,5)             61.2958         estimate D2E/DX2                !
 ! D23   D(8,3,4,9)           -178.1299         estimate D2E/DX2                !
 ! D24   D(8,3,4,13)           -62.2534         estimate D2E/DX2                !
 ! D25   D(14,3,4,5)          -179.1654         estimate D2E/DX2                !
 ! D26   D(14,3,4,9)           -58.5912         estimate D2E/DX2                !
 ! D27   D(14,3,4,13)           57.2853         estimate D2E/DX2                !
 ! D28   D(2,3,14,23)         -169.6088         estimate D2E/DX2                !
 ! D29   D(2,3,14,83)          -26.2177         estimate D2E/DX2                !
 ! D30   D(4,3,14,23)          -45.586          estimate D2E/DX2                !
 ! D31   D(4,3,14,83)           97.8051         estimate D2E/DX2                !
 ! D32   D(8,3,14,23)           73.4578         estimate D2E/DX2                !
 ! D33   D(8,3,14,83)         -143.151          estimate D2E/DX2                !
 ! D34   D(3,4,5,6)             54.3208         estimate D2E/DX2                !
 ! D35   D(3,4,5,10)           171.2701         estimate D2E/DX2                !
 ! D36   D(3,4,5,12)           -69.8136         estimate D2E/DX2                !
 ! D37   D(9,4,5,6)            -66.0871         estimate D2E/DX2                !
 ! D38   D(9,4,5,10)            50.8622         estimate D2E/DX2                !
 ! D39   D(9,4,5,12)           169.7785         estimate D2E/DX2                !
 ! D40   D(13,4,5,6)           175.6541         estimate D2E/DX2                !
 ! D41   D(13,4,5,10)          -67.3967         estimate D2E/DX2                !
 ! D42   D(13,4,5,12)           51.5197         estimate D2E/DX2                !
 ! D43   D(3,4,13,22)           84.3481         estimate D2E/DX2                !
 ! D44   D(3,4,13,83)          -48.0369         estimate D2E/DX2                !
 ! D45   D(5,4,13,22)          -36.9989         estimate D2E/DX2                !
 ! D46   D(5,4,13,83)         -169.3838         estimate D2E/DX2                !
 ! D47   D(9,4,13,22)         -157.4961         estimate D2E/DX2                !
 ! D48   D(9,4,13,83)           70.119          estimate D2E/DX2                !
 ! D49   D(4,5,6,1)            -54.1488         estimate D2E/DX2                !
 ! D50   D(4,5,6,11)            65.8085         estimate D2E/DX2                !
 ! D51   D(4,5,6,16)          -177.0389         estimate D2E/DX2                !
 ! D52   D(10,5,6,1)          -172.1019         estimate D2E/DX2                !
 ! D53   D(10,5,6,11)          -52.1446         estimate D2E/DX2                !
 ! D54   D(10,5,6,16)           65.008          estimate D2E/DX2                !
 ! D55   D(12,5,6,1)            64.1389         estimate D2E/DX2                !
 ! D56   D(12,5,6,11)         -175.9039         estimate D2E/DX2                !
 ! D57   D(12,5,6,16)          -58.7512         estimate D2E/DX2                !
 ! D58   D(4,5,12,21)          156.9177         estimate D2E/DX2                !
 ! D59   D(6,5,12,21)           36.7024         estimate D2E/DX2                !
 ! D60   D(10,5,12,21)         -85.3021         estimate D2E/DX2                !
 ! D61   D(1,6,16,17)           49.9854         estimate D2E/DX2                !
 ! D62   D(1,6,16,18)          167.7197         estimate D2E/DX2                !
 ! D63   D(1,6,16,19)          -71.1304         estimate D2E/DX2                !
 ! D64   D(5,6,16,17)          175.7718         estimate D2E/DX2                !
 ! D65   D(5,6,16,18)          -66.4939         estimate D2E/DX2                !
 ! D66   D(5,6,16,19)           54.656          estimate D2E/DX2                !
 ! D67   D(11,6,16,17)         -66.6662         estimate D2E/DX2                !
 ! D68   D(11,6,16,18)          51.0682         estimate D2E/DX2                !
 ! D69   D(11,6,16,19)         172.2181         estimate D2E/DX2                !
 ! D70   D(4,13,83,14)          94.169          estimate D2E/DX2                !
 ! D71   D(4,13,83,19)          21.3653         estimate D2E/DX2                !
 ! D72   D(22,13,83,14)         13.5522         estimate D2E/DX2                !
 ! D73   D(22,13,83,19)        -59.2515         estimate D2E/DX2                !
 ! D74   D(3,14,83,13)         -78.0148         estimate D2E/DX2                !
 ! D75   D(3,14,83,19)           1.2367         estimate D2E/DX2                !
 ! D76   D(3,14,83,81)         114.2895         estimate D2E/DX2                !
 ! D77   D(23,14,83,13)         59.625          estimate D2E/DX2                !
 ! D78   D(23,14,83,19)        138.8765         estimate D2E/DX2                !
 ! D79   D(23,14,83,81)       -108.0706         estimate D2E/DX2                !
 ! D80   D(2,15,27,26)         175.6284         estimate D2E/DX2                !
 ! D81   D(2,15,27,28)          57.7627         estimate D2E/DX2                !
 ! D82   D(2,15,27,32)         -65.0741         estimate D2E/DX2                !
 ! D83   D(6,16,19,20)        -176.0789         estimate D2E/DX2                !
 ! D84   D(6,16,19,83)          13.2891         estimate D2E/DX2                !
 ! D85   D(17,16,19,20)         64.0073         estimate D2E/DX2                !
 ! D86   D(17,16,19,83)       -106.6247         estimate D2E/DX2                !
 ! D87   D(18,16,19,20)        -56.7828         estimate D2E/DX2                !
 ! D88   D(18,16,19,83)        132.5852         estimate D2E/DX2                !
 ! D89   D(16,19,83,13)       -106.6856         estimate D2E/DX2                !
 ! D90   D(16,19,83,14)       -145.9613         estimate D2E/DX2                !
 ! D91   D(16,19,83,81)         63.9568         estimate D2E/DX2                !
 ! D92   D(29,24,25,26)        -44.2573         estimate D2E/DX2                !
 ! D93   D(29,24,25,30)         79.7107         estimate D2E/DX2                !
 ! D94   D(29,24,25,37)       -166.2703         estimate D2E/DX2                !
 ! D95   D(25,24,29,28)         49.0349         estimate D2E/DX2                !
 ! D96   D(25,24,29,34)        -71.8714         estimate D2E/DX2                !
 ! D97   D(25,24,29,38)        171.392          estimate D2E/DX2                !
 ! D98   D(24,25,26,27)         48.2327         estimate D2E/DX2                !
 ! D99   D(24,25,26,31)        -68.1936         estimate D2E/DX2                !
 ! D100  D(24,25,26,36)        174.797          estimate D2E/DX2                !
 ! D101  D(30,25,26,27)        -76.2662         estimate D2E/DX2                !
 ! D102  D(30,25,26,31)        167.3075         estimate D2E/DX2                !
 ! D103  D(30,25,26,36)         50.2981         estimate D2E/DX2                !
 ! D104  D(37,25,26,27)        167.8874         estimate D2E/DX2                !
 ! D105  D(37,25,26,31)         51.4612         estimate D2E/DX2                !
 ! D106  D(37,25,26,36)        -65.5482         estimate D2E/DX2                !
 ! D107  D(24,25,37,49)         55.3325         estimate D2E/DX2                !
 ! D108  D(26,25,37,49)        -66.6071         estimate D2E/DX2                !
 ! D109  D(30,25,37,49)        173.9228         estimate D2E/DX2                !
 ! D110  D(25,26,27,15)       -179.4035         estimate D2E/DX2                !
 ! D111  D(25,26,27,28)        -56.9153         estimate D2E/DX2                !
 ! D112  D(25,26,27,32)         62.884          estimate D2E/DX2                !
 ! D113  D(31,26,27,15)        -63.2652         estimate D2E/DX2                !
 ! D114  D(31,26,27,28)         59.223          estimate D2E/DX2                !
 ! D115  D(31,26,27,32)        179.0223         estimate D2E/DX2                !
 ! D116  D(36,26,27,15)         56.6621         estimate D2E/DX2                !
 ! D117  D(36,26,27,28)        179.1503         estimate D2E/DX2                !
 ! D118  D(36,26,27,32)        -61.0504         estimate D2E/DX2                !
 ! D119  D(25,26,36,44)       -164.9692         estimate D2E/DX2                !
 ! D120  D(27,26,36,44)        -37.9889         estimate D2E/DX2                !
 ! D121  D(31,26,36,44)         80.2493         estimate D2E/DX2                !
 ! D122  D(15,27,28,29)        172.5215         estimate D2E/DX2                !
 ! D123  D(15,27,28,33)        -71.125          estimate D2E/DX2                !
 ! D124  D(15,27,28,35)         49.3367         estimate D2E/DX2                !
 ! D125  D(26,27,28,29)         57.6684         estimate D2E/DX2                !
 ! D126  D(26,27,28,33)        174.0219         estimate D2E/DX2                !
 ! D127  D(26,27,28,35)        -65.5164         estimate D2E/DX2                !
 ! D128  D(32,27,28,29)        -64.132          estimate D2E/DX2                !
 ! D129  D(32,27,28,33)         52.2216         estimate D2E/DX2                !
 ! D130  D(32,27,28,35)        172.6833         estimate D2E/DX2                !
 ! D131  D(27,28,29,24)        -54.0467         estimate D2E/DX2                !
 ! D132  D(27,28,29,34)         68.3563         estimate D2E/DX2                !
 ! D133  D(27,28,29,38)       -172.1737         estimate D2E/DX2                !
 ! D134  D(33,28,29,24)       -172.3469         estimate D2E/DX2                !
 ! D135  D(33,28,29,34)        -49.9439         estimate D2E/DX2                !
 ! D136  D(33,28,29,38)         69.5261         estimate D2E/DX2                !
 ! D137  D(35,28,29,24)         67.786          estimate D2E/DX2                !
 ! D138  D(35,28,29,34)       -169.811          estimate D2E/DX2                !
 ! D139  D(35,28,29,38)        -50.3411         estimate D2E/DX2                !
 ! D140  D(27,28,35,43)        144.8112         estimate D2E/DX2                !
 ! D141  D(27,28,35,82)         -1.6453         estimate D2E/DX2                !
 ! D142  D(29,28,35,43)         24.0952         estimate D2E/DX2                !
 ! D143  D(29,28,35,82)       -122.3613         estimate D2E/DX2                !
 ! D144  D(33,28,35,43)        -94.3594         estimate D2E/DX2                !
 ! D145  D(33,28,35,82)        119.184          estimate D2E/DX2                !
 ! D146  D(24,29,38,39)         57.0795         estimate D2E/DX2                !
 ! D147  D(24,29,38,40)        175.5477         estimate D2E/DX2                !
 ! D148  D(24,29,38,41)        -65.3845         estimate D2E/DX2                !
 ! D149  D(28,29,38,39)       -179.8495         estimate D2E/DX2                !
 ! D150  D(28,29,38,40)        -61.3813         estimate D2E/DX2                !
 ! D151  D(28,29,38,41)         57.6864         estimate D2E/DX2                !
 ! D152  D(34,29,38,39)        -60.8896         estimate D2E/DX2                !
 ! D153  D(34,29,38,40)         57.5786         estimate D2E/DX2                !
 ! D154  D(34,29,38,41)        176.6463         estimate D2E/DX2                !
 ! D155  D(28,35,82,41)        130.0148         estimate D2E/DX2                !
 ! D156  D(28,35,82,62)        109.6225         estimate D2E/DX2                !
 ! D157  D(43,35,82,41)        -12.2507         estimate D2E/DX2                !
 ! D158  D(43,35,82,62)        -32.643          estimate D2E/DX2                !
 ! D159  D(25,37,49,48)        116.5208         estimate D2E/DX2                !
 ! D160  D(25,37,49,50)       -123.7456         estimate D2E/DX2                !
 ! D161  D(25,37,49,55)         -5.2992         estimate D2E/DX2                !
 ! D162  D(29,38,41,42)         80.0497         estimate D2E/DX2                !
 ! D163  D(29,38,41,82)        -21.4465         estimate D2E/DX2                !
 ! D164  D(39,38,41,42)        -41.6167         estimate D2E/DX2                !
 ! D165  D(39,38,41,82)       -143.1129         estimate D2E/DX2                !
 ! D166  D(40,38,41,42)       -159.5808         estimate D2E/DX2                !
 ! D167  D(40,38,41,82)         98.923          estimate D2E/DX2                !
 ! D168  D(38,41,82,35)        -32.6735         estimate D2E/DX2                !
 ! D169  D(38,41,82,62)        113.4858         estimate D2E/DX2                !
 ! D170  D(38,41,82,81)        149.1009         estimate D2E/DX2                !
 ! D171  D(42,41,82,35)       -143.3875         estimate D2E/DX2                !
 ! D172  D(42,41,82,62)          2.7718         estimate D2E/DX2                !
 ! D173  D(42,41,82,81)         38.3869         estimate D2E/DX2                !
 ! D174  D(50,45,46,47)         56.7377         estimate D2E/DX2                !
 ! D175  D(50,45,46,51)        176.0977         estimate D2E/DX2                !
 ! D176  D(50,45,46,58)        -65.7992         estimate D2E/DX2                !
 ! D177  D(84,45,46,47)         41.4913         estimate D2E/DX2                !
 ! D178  D(84,45,46,51)        160.8513         estimate D2E/DX2                !
 ! D179  D(84,45,46,58)        -81.0456         estimate D2E/DX2                !
 ! D180  D(46,45,50,49)        -26.1822         estimate D2E/DX2                !
 ! D181  D(46,45,50,54)       -142.2494         estimate D2E/DX2                !
 ! D182  D(46,45,50,59)        102.8843         estimate D2E/DX2                !
 ! D183  D(84,45,50,49)        -13.8712         estimate D2E/DX2                !
 ! D184  D(84,45,50,54)       -129.9384         estimate D2E/DX2                !
 ! D185  D(84,45,50,59)        115.1953         estimate D2E/DX2                !
 ! D186  D(46,45,84,56)       -116.1253         estimate D2E/DX2                !
 ! D187  D(46,45,84,58)         46.8091         estimate D2E/DX2                !
 ! D188  D(46,45,84,81)         87.9956         estimate D2E/DX2                !
 ! D189  D(50,45,84,56)         78.2476         estimate D2E/DX2                !
 ! D190  D(50,45,84,58)       -118.8179         estimate D2E/DX2                !
 ! D191  D(50,45,84,81)        -77.6314         estimate D2E/DX2                !
 ! D192  D(45,46,47,48)        -25.8589         estimate D2E/DX2                !
 ! D193  D(45,46,47,52)       -142.9568         estimate D2E/DX2                !
 ! D194  D(45,46,47,57)         98.5529         estimate D2E/DX2                !
 ! D195  D(51,46,47,48)       -143.3484         estimate D2E/DX2                !
 ! D196  D(51,46,47,52)         99.5536         estimate D2E/DX2                !
 ! D197  D(51,46,47,57)        -18.9366         estimate D2E/DX2                !
 ! D198  D(58,46,47,48)         96.1159         estimate D2E/DX2                !
 ! D199  D(58,46,47,52)        -20.982          estimate D2E/DX2                !
 ! D200  D(58,46,47,57)       -139.4723         estimate D2E/DX2                !
 ! D201  D(45,46,58,66)       -154.9285         estimate D2E/DX2                !
 ! D202  D(45,46,58,84)        114.0193         estimate D2E/DX2                !
 ! D203  D(47,46,58,66)         80.1471         estimate D2E/DX2                !
 ! D204  D(47,46,58,84)        -10.9051         estimate D2E/DX2                !
 ! D205  D(51,46,58,66)        -39.6705         estimate D2E/DX2                !
 ! D206  D(51,46,58,84)       -130.7227         estimate D2E/DX2                !
 ! D207  D(46,47,48,49)        -29.318          estimate D2E/DX2                !
 ! D208  D(46,47,48,53)         89.878          estimate D2E/DX2                !
 ! D209  D(46,47,48,56)       -152.6826         estimate D2E/DX2                !
 ! D210  D(52,47,48,49)         88.3723         estimate D2E/DX2                !
 ! D211  D(52,47,48,53)       -152.4317         estimate D2E/DX2                !
 ! D212  D(52,47,48,56)        -34.9923         estimate D2E/DX2                !
 ! D213  D(57,47,48,49)       -150.3958         estimate D2E/DX2                !
 ! D214  D(57,47,48,53)        -31.1998         estimate D2E/DX2                !
 ! D215  D(57,47,48,56)         86.2396         estimate D2E/DX2                !
 ! D216  D(46,47,57,65)       -176.3919         estimate D2E/DX2                !
 ! D217  D(48,47,57,65)        -52.2186         estimate D2E/DX2                !
 ! D218  D(52,47,57,65)         66.8907         estimate D2E/DX2                !
 ! D219  D(47,48,49,37)        174.6916         estimate D2E/DX2                !
 ! D220  D(47,48,49,50)         57.7902         estimate D2E/DX2                !
 ! D221  D(47,48,49,55)        -63.7791         estimate D2E/DX2                !
 ! D222  D(53,48,49,37)         55.4343         estimate D2E/DX2                !
 ! D223  D(53,48,49,50)        -61.4671         estimate D2E/DX2                !
 ! D224  D(53,48,49,55)        176.9636         estimate D2E/DX2                !
 ! D225  D(56,48,49,37)        -66.1654         estimate D2E/DX2                !
 ! D226  D(56,48,49,50)        176.9332         estimate D2E/DX2                !
 ! D227  D(56,48,49,55)         55.3639         estimate D2E/DX2                !
 ! D228  D(47,48,56,64)       -171.8769         estimate D2E/DX2                !
 ! D229  D(47,48,56,84)         59.5302         estimate D2E/DX2                !
 ! D230  D(49,48,56,64)         65.6926         estimate D2E/DX2                !
 ! D231  D(49,48,56,84)        -62.9003         estimate D2E/DX2                !
 ! D232  D(53,48,56,64)        -55.2048         estimate D2E/DX2                !
 ! D233  D(53,48,56,84)        176.2023         estimate D2E/DX2                !
 ! D234  D(37,49,50,45)       -150.4397         estimate D2E/DX2                !
 ! D235  D(37,49,50,54)        -35.8635         estimate D2E/DX2                !
 ! D236  D(37,49,50,59)         82.3937         estimate D2E/DX2                !
 ! D237  D(48,49,50,45)        -31.0509         estimate D2E/DX2                !
 ! D238  D(48,49,50,54)         83.5253         estimate D2E/DX2                !
 ! D239  D(48,49,50,59)       -158.2175         estimate D2E/DX2                !
 ! D240  D(55,49,50,45)         90.9508         estimate D2E/DX2                !
 ! D241  D(55,49,50,54)       -154.473          estimate D2E/DX2                !
 ! D242  D(55,49,50,59)        -36.2158         estimate D2E/DX2                !
 ! D243  D(45,50,59,60)         49.4598         estimate D2E/DX2                !
 ! D244  D(45,50,59,61)        167.3936         estimate D2E/DX2                !
 ! D245  D(45,50,59,62)        -73.0127         estimate D2E/DX2                !
 ! D246  D(49,50,59,60)        178.2122         estimate D2E/DX2                !
 ! D247  D(49,50,59,61)        -63.854          estimate D2E/DX2                !
 ! D248  D(49,50,59,62)         55.7397         estimate D2E/DX2                !
 ! D249  D(54,50,59,60)        -63.6627         estimate D2E/DX2                !
 ! D250  D(54,50,59,61)         54.2711         estimate D2E/DX2                !
 ! D251  D(54,50,59,62)        173.8648         estimate D2E/DX2                !
 ! D252  D(48,56,84,45)         -2.9508         estimate D2E/DX2                !
 ! D253  D(48,56,84,58)        -10.4515         estimate D2E/DX2                !
 ! D254  D(48,56,84,81)         71.1155         estimate D2E/DX2                !
 ! D255  D(64,56,84,45)       -131.0469         estimate D2E/DX2                !
 ! D256  D(64,56,84,58)       -138.5476         estimate D2E/DX2                !
 ! D257  D(64,56,84,81)        -56.9806         estimate D2E/DX2                !
 ! D258  D(46,58,66,67)        -34.2209         estimate D2E/DX2                !
 ! D259  D(46,58,66,68)         83.3554         estimate D2E/DX2                !
 ! D260  D(46,58,66,69)       -155.9404         estimate D2E/DX2                !
 ! D261  D(84,58,66,67)         54.449          estimate D2E/DX2                !
 ! D262  D(84,58,66,68)        172.0253         estimate D2E/DX2                !
 ! D263  D(84,58,66,69)        -67.2706         estimate D2E/DX2                !
 ! D264  D(46,58,84,45)        -32.1931         estimate D2E/DX2                !
 ! D265  D(46,58,84,56)        -19.2701         estimate D2E/DX2                !
 ! D266  D(46,58,84,81)       -178.5663         estimate D2E/DX2                !
 ! D267  D(66,58,84,45)       -147.6831         estimate D2E/DX2                !
 ! D268  D(66,58,84,56)       -134.7601         estimate D2E/DX2                !
 ! D269  D(66,58,84,81)         65.9436         estimate D2E/DX2                !
 ! D270  D(50,59,62,63)         42.9296         estimate D2E/DX2                !
 ! D271  D(50,59,62,82)        -40.8366         estimate D2E/DX2                !
 ! D272  D(60,59,62,63)        -78.4366         estimate D2E/DX2                !
 ! D273  D(60,59,62,82)       -162.2028         estimate D2E/DX2                !
 ! D274  D(61,59,62,63)        163.6827         estimate D2E/DX2                !
 ! D275  D(61,59,62,82)         79.9165         estimate D2E/DX2                !
 ! D276  D(59,62,82,35)       -104.5922         estimate D2E/DX2                !
 ! D277  D(59,62,82,41)       -123.492          estimate D2E/DX2                !
 ! D278  D(59,62,82,81)         72.5835         estimate D2E/DX2                !
 ! D279  D(63,62,82,35)        151.3322         estimate D2E/DX2                !
 ! D280  D(63,62,82,41)        132.4325         estimate D2E/DX2                !
 ! D281  D(63,62,82,81)        -31.4921         estimate D2E/DX2                !
 ! D282  D(58,66,69,70)        -61.5439         estimate D2E/DX2                !
 ! D283  D(58,66,69,71)       -176.1716         estimate D2E/DX2                !
 ! D284  D(58,66,69,72)         60.3412         estimate D2E/DX2                !
 ! D285  D(67,66,69,70)        177.7171         estimate D2E/DX2                !
 ! D286  D(67,66,69,71)         63.0894         estimate D2E/DX2                !
 ! D287  D(67,66,69,72)        -60.3978         estimate D2E/DX2                !
 ! D288  D(68,66,69,70)         58.1975         estimate D2E/DX2                !
 ! D289  D(68,66,69,71)        -56.4302         estimate D2E/DX2                !
 ! D290  D(68,66,69,72)       -179.9174         estimate D2E/DX2                !
 ! D291  D(66,69,72,73)       -169.7284         estimate D2E/DX2                !
 ! D292  D(66,69,72,74)        -54.8239         estimate D2E/DX2                !
 ! D293  D(66,69,72,75)         68.2131         estimate D2E/DX2                !
 ! D294  D(70,69,72,73)        -47.9895         estimate D2E/DX2                !
 ! D295  D(70,69,72,74)         66.9151         estimate D2E/DX2                !
 ! D296  D(70,69,72,75)       -170.048          estimate D2E/DX2                !
 ! D297  D(71,69,72,73)         68.043          estimate D2E/DX2                !
 ! D298  D(71,69,72,74)       -177.0525         estimate D2E/DX2                !
 ! D299  D(71,69,72,75)        -54.0155         estimate D2E/DX2                !
 ! D300  D(69,72,75,76)        -59.4602         estimate D2E/DX2                !
 ! D301  D(69,72,75,77)         56.5418         estimate D2E/DX2                !
 ! D302  D(69,72,75,78)        176.4805         estimate D2E/DX2                !
 ! D303  D(73,72,75,76)        178.7726         estimate D2E/DX2                !
 ! D304  D(73,72,75,77)        -65.2253         estimate D2E/DX2                !
 ! D305  D(73,72,75,78)         54.7134         estimate D2E/DX2                !
 ! D306  D(74,72,75,76)         62.194          estimate D2E/DX2                !
 ! D307  D(74,72,75,77)        178.196          estimate D2E/DX2                !
 ! D308  D(74,72,75,78)        -61.8652         estimate D2E/DX2                !
 ! D309  D(72,75,78,79)        -58.2462         estimate D2E/DX2                !
 ! D310  D(72,75,78,80)       -178.2578         estimate D2E/DX2                !
 ! D311  D(72,75,78,81)         61.3278         estimate D2E/DX2                !
 ! D312  D(76,75,78,79)        176.5147         estimate D2E/DX2                !
 ! D313  D(76,75,78,80)         56.5031         estimate D2E/DX2                !
 ! D314  D(76,75,78,81)        -63.9113         estimate D2E/DX2                !
 ! D315  D(77,75,78,79)         63.3401         estimate D2E/DX2                !
 ! D316  D(77,75,78,80)        -56.6716         estimate D2E/DX2                !
 ! D317  D(77,75,78,81)       -177.0859         estimate D2E/DX2                !
 ! D318  D(75,78,81,82)        -70.8581         estimate D2E/DX2                !
 ! D319  D(75,78,81,83)        173.8344         estimate D2E/DX2                !
 ! D320  D(75,78,81,84)         51.2402         estimate D2E/DX2                !
 ! D321  D(79,78,81,82)         51.9533         estimate D2E/DX2                !
 ! D322  D(79,78,81,83)        -63.3542         estimate D2E/DX2                !
 ! D323  D(79,78,81,84)        174.0516         estimate D2E/DX2                !
 ! D324  D(80,78,81,82)        166.769          estimate D2E/DX2                !
 ! D325  D(80,78,81,83)         51.4615         estimate D2E/DX2                !
 ! D326  D(80,78,81,84)        -71.1327         estimate D2E/DX2                !
 ! D327  D(78,81,82,41)         60.221          estimate D2E/DX2                !
 ! D328  D(78,81,82,62)         83.7859         estimate D2E/DX2                !
 ! D329  D(83,81,82,41)        178.461          estimate D2E/DX2                !
 ! D330  D(83,81,82,62)       -157.9742         estimate D2E/DX2                !
 ! D331  D(84,81,82,41)        -64.7013         estimate D2E/DX2                !
 ! D332  D(84,81,82,62)        -41.1365         estimate D2E/DX2                !
 ! D333  D(78,81,83,14)         44.135          estimate D2E/DX2                !
 ! D334  D(78,81,83,19)        134.978          estimate D2E/DX2                !
 ! D335  D(82,81,83,14)        -75.877          estimate D2E/DX2                !
 ! D336  D(82,81,83,19)         14.9659         estimate D2E/DX2                !
 ! D337  D(84,81,83,14)        168.5865         estimate D2E/DX2                !
 ! D338  D(84,81,83,19)       -100.5706         estimate D2E/DX2                !
 ! D339  D(78,81,84,45)        -84.7283         estimate D2E/DX2                !
 ! D340  D(78,81,84,56)       -142.9721         estimate D2E/DX2                !
 ! D341  D(78,81,84,58)        -68.1197         estimate D2E/DX2                !
 ! D342  D(82,81,84,45)         39.6057         estimate D2E/DX2                !
 ! D343  D(82,81,84,56)        -18.6381         estimate D2E/DX2                !
 ! D344  D(82,81,84,58)         56.2143         estimate D2E/DX2                !
 ! D345  D(83,81,84,45)        152.934          estimate D2E/DX2                !
 ! D346  D(83,81,84,56)         94.6902         estimate D2E/DX2                !
 ! D347  D(83,81,84,58)        169.5426         estimate D2E/DX2                !
 --------------------------------------------------------------------------------
 Trust Radius=3.00D-01 FncErr=1.00D-07 GrdErr=1.00D-06
 Number of steps in this run=    504 maximum allowed number of steps=    504.
 GradGradGradGradGradGradGradGradGradGradGradGradGradGradGradGradGradGrad

 Leave Link  103 at Wed Apr 27 18:35:19 2016, MaxMem= 10737418240 cpu:         0.5
 (Enter /share/apps//g09/l202.exe)
 Stoichiometry    C23H44NO16(1+)
 Framework group  C1[X(C23H44NO16)]
 Deg. of freedom   246
 Full point group                 C1      NOp   1
 Largest Abelian subgroup         C1      NOp   1
 Largest concise Abelian subgroup C1      NOp   1
                         Standard orientation:                         
 ---------------------------------------------------------------------
 Center     Atomic      Atomic             Coordinates (Angstroms)
 Number     Number       Type             X           Y           Z
 ---------------------------------------------------------------------
      1          8           0        4.312661   -0.839601    0.645445
      2          6           0        3.303701    0.131057    0.791613
      3          6           0        3.863648    1.540920    0.585286
      4          6           0        4.580188    1.676369   -0.761788
      5          6           0        5.673787    0.608488   -0.857042
      6          6           0        5.046188   -0.776921   -0.603154
      7          1           0        2.932550    0.003722    1.821154
      8          1           0        4.598129    1.705166    1.390721
      9          1           0        3.856092    1.548733   -1.582899
     10          1           0        6.084250    0.603054   -1.887319
     11          1           0        4.351448   -0.974685   -1.443486
     12          8           0        6.671694    1.000118    0.080066
     13          8           0        5.091452    3.002314   -0.886432
     14          8           0        2.815924    2.526450    0.686390
     15          8           0        2.224909   -0.026105   -0.136711
     16          6           0        6.045960   -1.925338   -0.599797
     17          1           0        5.515278   -2.855808   -0.336098
     18          1           0        6.452000   -2.027756   -1.621248
     19          8           0        7.091171   -1.651845    0.346128
     20          1           0        7.756636   -2.358087    0.297816
     21          1           0        7.180598    0.195806    0.321840
     22          1           0        5.957068    3.003212   -0.426842
     23          1           0        3.236601    3.355067    0.375080
     24          8           0       -1.035097   -2.663005    0.073689
     25          6           0       -0.595790   -2.224745   -1.207929
     26          6           0        0.370218   -1.044700   -1.088505
     27          6           0        1.476078   -1.258713   -0.070938
     28          6           0        0.832338   -1.557667    1.287754
     29          6           0       -0.074657   -2.797327    1.129435
     30          1           0       -0.133860   -3.048693   -1.782006
     31          1           0       -0.230237   -0.201305   -0.719936
     32          1           0        2.130763   -2.105671   -0.345993
     33          1           0        1.613450   -1.823437    2.023957
     34          1           0        0.579507   -3.674092    0.948209
     35          8           0        0.109028   -0.406758    1.757250
     36          8           0        0.862929   -0.737681   -2.396646
     37          8           0       -1.742392   -1.875665   -1.947713
     38          6           0       -0.913355   -3.063108    2.386606
     39          1           0       -1.537262   -3.954911    2.222942
     40          1           0       -0.249523   -3.259662    3.241425
     41          8           0       -1.729316   -1.932716    2.723948
     42          1           0       -2.541421   -1.943519    2.133875
     43          1           0       -0.697501   -0.783206    2.241422
     44          1           0        1.639970   -0.162797   -2.258093
     45          8           0       -5.111026   -0.609056   -1.345300
     46          6           0       -4.870152    0.695105   -0.925171
     47          6           0       -3.696964    1.379876   -1.663796
     48          6           0       -2.675503    0.370874   -2.203728
     49          6           0       -2.623028   -0.894863   -1.341350
     50          6           0       -4.012932   -1.559192   -1.265556
     51          1           0       -5.797695    1.251151   -1.136011
     52          1           0       -3.161236    2.009500   -0.929183
     53          1           0       -2.977449    0.081942   -3.225821
     54          1           0       -4.121522   -2.181564   -2.168665
     55          1           0       -2.272196   -0.653058   -0.325972
     56          8           0       -1.414498    1.075161   -2.252870
     57          8           0       -4.266794    2.189718   -2.685428
     58          8           0       -4.610430    0.683523    0.499694
     59          6           0       -4.195789   -2.480409   -0.056426
     60          1           0       -5.225660   -2.872038   -0.083990
     61          1           0       -3.495237   -3.321176   -0.139029
     62          8           0       -3.947402   -1.853327    1.210265
     63          1           0       -4.370466   -0.961330    1.182002
     64          1           0       -0.763071    0.502396   -2.716291
     65          1           0       -3.541316    2.585882   -3.200624
     66          6           0       -4.893485    1.916460    1.193337
     67          1           0       -4.671191    2.774081    0.535642
     68          1           0       -5.968268    1.957165    1.438236
     69          6           0       -4.048200    1.955717    2.461171
     70          1           0       -4.334638    1.106126    3.100717
     71          1           0       -4.317150    2.864843    3.023540
     72          6           0       -2.531113    1.905265    2.217656
     73          1           0       -2.023947    1.752231    3.183993
     74          1           0       -2.315799    1.011814    1.609171
     75          6           0       -1.962806    3.161179    1.543278
     76          1           0       -2.435189    3.330716    0.561324
     77          1           0       -2.213899    4.048900    2.146494
     78          6           0       -0.448351    3.171258    1.366933
     79          1           0        0.072425    3.067378    2.328926
     80          1           0       -0.119013    4.112598    0.907327
     81          7           0        0.061678    2.053801    0.500351
     82          1           0       -0.014357    1.113597    0.981020
     83          1           0        1.091181    2.182609    0.336498
     84          1           0       -0.432958    1.988799   -0.407804
 ---------------------------------------------------------------------
 Rotational constants (GHZ):      0.1561602      0.0552870      0.0512537
 Leave Link  202 at Wed Apr 27 18:35:19 2016, MaxMem= 10737418240 cpu:         0.8
 (Enter /share/apps//g09/l301.exe)
 Standard basis: 6-311+G(d,p) (5D, 7F)
 Ernie: Thresh=  0.10000D-02 Tol=  0.10000D-05 Strict=F.
 There are  1184 symmetry adapted cartesian basis functions of A   symmetry.
 There are  1144 symmetry adapted basis functions of A   symmetry.
  1144 basis functions,  1792 primitive gaussians,  1184 cartesian basis functions
   158 alpha electrons      158 beta electrons
       nuclear repulsion energy      5888.1718569340 Hartrees.
 IExCor= 1009 DFT=T Ex+Corr=PBE1PBE ExCW=0 ScaHFX=  0.250000
 ScaDFX=  0.750000  0.750000  1.000000  1.000000 ScalE2=  1.000000  1.000000
 IRadAn=      0 IRanWt=     -1 IRanGd=            0 ICorTp=0 IEmpDi=131
 NAtoms=   84 NActive=   84 NUniq=   84 SFac= 1.00D+00 NAtFMM=   60 NAOKFM=T Big=T
 Integral buffers will be    131072 words long.
 Raffenetti 2 integral format.
[...]
 5,-0.00027062,-0.00002930,-0.00002088,-0.00018851,-0.00029166,-0.00005
 018,0.00011518,-0.00000306,-0.00003458,0.00005309,0.00007708,-0.000255
 39,0.00120712,0.00063133,-0.00032943,-0.00014966,-0.00049178,-0.000187
 91,0.00030074,-0.00023919,0.00017864,-0.00018897,-0.00003103,-0.000042
 05,0.00001393,-0.00000832,-0.00000132,0.00000867,-0.00000928,-0.000054
 55,0.00023400,0.00014962,0.00000884,-0.00003055,-0.00000690,-0.0001773
 2,0.00003826,-0.00022648,-0.00050118,0.00036242,0.00032060,-0.00007001
 ,0.00014511,0.00011016,0.00006145,-0.00002585,-0.00018866,0.00035582,0
 .00009150,-0.00025479,0.00000956,0.00000034,-0.00015638,0.00029877,-0.
 00015361,-0.00001930,-0.00000260,-0.00006735,0.00000351,0.00000040,0.0
 0000008,0.00001083,-0.00013881,0.00007281,0.00009109,-0.00001860,0.000
 00250,0.00006243,-0.00001047,0.00000197,0.00002114,-0.00006635,-0.0000
 5834,-0.00001415,-0.00106173,0.00016652,0.00001667,-0.00019820,-0.0001
 3854,0.00009513,-0.00008347,0.00000035,0.00015009,0.00005212,-0.000020
 71,-0.00003279,-0.00000439,0.00000142,0.00000869,-0.00000157,0.0000121
 5,0.00000958,-0.00005595,0.00007317,0.00006058,0.00001459,-0.00007409,
 -0.00005917,0.00002956,-0.00027606,0.00048155,0.00007087,0.00002435,0.
 00000058,0.00004253,-0.00001867,-0.00004598,-0.00000666,0.00003369,-0.
 00000999,-0.00001068,-0.00000291,0.00003919,-0.00003915,0.00006152,-0.
 00008536,0.00003117,-0.00001707,0.00003430,0.00004251,-0.00004920,0.00
 001698,0.00017631,0.00008922,0.00052613,-0.00000211,-0.00005326,-0.000
 04142,0.00007549,-0.00014481,-0.00010604,-0.00359341,0.00208701,0.0026
 5586,0.00014170,0.00012513,0.00012086,-0.00017103,0.00053949,-0.001089
 43,-0.01261665,0.00867934,-0.02335892,-0.00043537,-0.00062975,-0.00032
 137,0.00163161,-0.00032785,0.00000584,-0.11038516,0.03157453,-0.102429
 53,-0.00425107,0.00109957,-0.00931526,0.11964409,-0.00087463,0.0012837
 5,-0.00034136,0.00014636,-0.00319315,0.00180153,0.00061252,-0.00322855
 ,0.00254181,0.00051723,0.00038104,0.00018415,-0.00015775,-0.00022351,0
 .00004849,0.00063395,0.00003199,0.00017803,-0.00010436,-0.00025713,-0.
 00015807,-0.00001240,0.00013433,-0.00015775,0.00009510,0.00002285,0.00
 009518,-0.00008502,0.00009142,-0.00008111,-0.00002602,-0.00005601,0.00
 000130,-0.00008437,0.00025886,-0.00024632,-0.00059418,-0.00002074,-0.0
 0057296,-0.00036411,-0.00829817,-0.00335963,-0.00086112,0.00106298,0.0
 0178138,-0.00004560,-0.00017596,0.00004675,0.00002862,0.00000952,0.000
 00386,-0.00002684,0.00004334,-0.00004202,-0.00000067,0.00022376,-0.000
 08834,-0.00000324,-0.00005438,0.00002667,0.00001692,-0.00014577,0.0000
 5725,0.00004443,-0.00003018,0.00017482,0.00050779,0.00390886,-0.002662
 02,-0.00008480,-0.00021310,0.00022185,-0.00000904,0.00018943,-0.000493
 52,-0.00006681,0.00053579,0.00002353,0.00016481,-0.00056402,-0.0028734
 5,-0.00112628,0.00032922,-0.00002320,0.00045420,-0.00000095,-0.0001763
 7,0.00002534,-0.00003759,0.00001001,-0.00019436,0.00020501,0.00008619,
 -0.00003634,0.00035461,0.00052052,0.00008152,-0.00026989,-0.00003543,0
 .00004024,-0.00006940,-0.00005662,0.00106346,-0.00311060,0.00072807,0.
 00006242,-0.00052824,0.00033099,0.00016165,-0.00051979,0.00039037,-0.0
 0025054,0.00020178,0.00003248,0.00006354,-0.00001185,0.00003380,-0.000
 01395,-0.00002703,0.00000358,0.00015212,-0.00029848,0.00015766,0.00002
 081,0.00018253,-0.00009160,-0.00012961,0.00039880,-0.00006374,0.000323
 96,0.00039140,-0.00030676,0.00011960,-0.00023294,-0.00012674,-0.000169
 55,0.00006944,0.00025935,-0.00019565,-0.00003869,0.00011445,0.00016315
 ,-0.00001572,0.00027757,-0.00032685,0.00027693,-0.00003508,-0.00002324
 ,0.00009651,-0.00001276,0.00000596,-0.00000334,-0.00001017,0.00007729,
 -0.00002944,-0.00005989,0.00000321,0.00000467,-0.00008321,0.00001376,-
 0.00000354,-0.00002025,0.00003631,0.00006804,0.00003122,0.00015320,-0.
 00021104,-0.00052549,0.00012596,0.00003423,-0.00009077,0.00018542,-0.0
 0004491,-0.00023775,-0.00003928,0.00003445,0.00001627,-0.00000081,-0.0
 0000685,-0.00000670,0.00000741,-0.00001614,-0.00001968,0.00003890,-0.0
 0017695,-0.00002822,-0.00003145,0.00014566,0.00010497,-0.00013910,0.00
 033879,-0.00005620,-0.00006489,-0.00001248,0.00006057,-0.00011878,0.00
 003608,0.00010303,0.00000322,-0.00004638,0.00000941,0.00002697,0.00000
 180,-0.00005576,-0.00010208,-0.00002315,0.00024048,-0.00004124,0.00001
 757,-0.00007722,-0.00004861,0.00007916,-0.00010177,0.00015092,0.000060
 11,-0.00068976,-0.00002529,0.00002112,0.00005882,-0.00030060,0.0002785
 2,0.00035871,0.00260002,-0.00172390,-0.00180940,-0.00010215,0.00016927
 ,-0.00025842,0.00035626,-0.00010107,0.00069501,0.01074469,-0.00795208,
 0.01583601,-0.00100284,0.00076022,-0.00022563,-0.00050625,-0.00022625,
 0.00038344,0.02984050,-0.08230327,0.07256813,-0.01222188,0.01516250,-0
 .02671724,-0.03702133,0.09202642,0.00062091,-0.00074118,-0.00192259,-0
 .00092309,0.00076560,0.00532428,-0.00508436,0.01062626,0.00198978,-0.0
 0092439,-0.00141525,-0.00001588,0.00044071,0.00084320,0.00039148,-0.00
 042819,0.00014739,0.00061891,0.00010621,0.00006927,-0.00014738,0.00093
 281,-0.00244148,0.00039039,-0.00004064,0.00021679,-0.00007194,0.000245
 60,-0.00038504,0.00011229,0.00014681,0.00003342,-0.00000679,0.00041161
 ,-0.00096833,0.00024789,0.00133396,-0.00064652,0.00070078,0.00304461,-
 0.00668595,0.00250073,-0.00021355,0.00206796,-0.00478701,-0.00005486,0
 .00014839,-0.00003439,-0.00002650,-0.00014005,-0.00004207,0.00001043,0
 .00000231,0.00004146,0.00002862,-0.00036100,-0.00012804,0.00003225,0.0
 0009249,-0.00003420,-0.00001281,0.00049284,0.00004338,-0.00018741,0.00
 011994,-0.00047983,-0.00054922,-0.00396179,-0.00075139,0.00010352,0.00
 032071,-0.00010669,-0.00017742,-0.00001281,-0.00008635,0.00111486,-0.0
 0104203,0.00038216,0.00030905,-0.00028713,0.00105894,0.00121517,-0.001
 45108,0.00022094,-0.00038270,0.00001754,0.00005955,-0.00003882,0.00009
 782,0.00014974,-0.00017669,0.00029461,-0.00053434,-0.00011124,0.000054
 21,-0.00013369,-0.00001342,0.00040213,0.00002916,-0.00008282,0.0001086
 5,0.00011795,0.00005799,0.00302978,0.00100872,-0.00073527,0.00051346,-
 0.00048708,-0.00017013,0.00038653,-0.00014838,0.00020818,-0.00039903,-
 0.00002481,-0.00005866,0.00002991,0.00000935,0.00001867,0.00003290,-0.
 00002677,-0.00000558,0.00053929,0.00031859,-0.00002183,-0.00011936,-0.
 00002786,-0.00036490,0.00001633,-0.00052535,0.00025106,-0.00039211,0.0
 0055033,-0.00014189,0.00026452,0.00028287,0.00023028,-0.00004266,-0.00
 045086,0.00047362,0.00028360,-0.00029531,-0.00022911,-0.00001055,-0.00
 055521,0.00033260,-0.00021463,-0.00002038,0.00000210,-0.00009095,-0.00
 005737,0.00001232,-0.00000430,0.00002452,-0.00015491,0.00006727,0.0001
 2627,-0.00001694,0.00000436,0.00018468,-0.00002021,0.00000607,0.000031
 42,-0.00009467,-0.00008956,-0.00004131,-0.00065835,-0.00009357,0.00100
 655,-0.00032778,-0.00033901,0.00016246,-0.00029023,0.00001122,0.000408
 59,0.00008627,-0.00005399,-0.00007834,0.00000834,-0.00000217,0.0000374
 1,-0.00001306,0.00001654,-0.00001054,-0.00006849,0.00019540,0.00018473
 ,0.00001866,-0.00018798,-0.00017791,0.00036333,-0.00018305,0.00012648,
 0.00013205,0.00010847,-0.00003738,0.00016823,-0.00006138,-0.00019676,0
 .00002158,0.00011589,-0.00005001,-0.00002785,-0.00000001,0.00011975,-0
 .00002326,0.00018561,-0.00009501,0.00003802,-0.00000193,0.00019107,-0.
 00003667,-0.00006259,0.00000398,-0.00025037,-0.00041407,-0.00019890,0.
 00003050,0.00004174,0.00001016,0.00000117,-0.00001300,-0.00021353,0.00
 379254,-0.00216376,-0.00177990,-0.00023436,0.00019660,-0.00018516,0.00
 085941,-0.00071725,0.00120980,-0.00157839,0.00002611,0.01480853,0.0011
 1314,-0.00013612,0.00017899,0.00081179,-0.00124618,0.00038389,-0.10025
 039,0.07495333,-0.27767313,-0.00707787,-0.00034138,-0.01645585,0.10747
 738,-0.07186399,0.28498386,-0.00026654,0.00011667,0.00010305,0.0004139
 8,-0.00026790,-0.00022309,0.00033966,-0.00088630,-0.00004673,0.0002087
 5,0.00018532,-0.00010927,-0.00006039,-0.00004594,-0.00004778,0.0001767
 8,0.00002299,-0.00003487,-0.00009315,-0.00011359,0.00003361,-0.0000594
 8,0.00015305,-0.00000855,-0.00004390,-0.00000905,0.00001644,-0.0000362
 6,0.00003758,-0.00002214,-0.00003088,-0.00000520,0.00001140,-0.0000710
 6,0.00003164,0.00001003,-0.00020030,0.00003725,-0.00003429,-0.00088043
 ,0.00085368,-0.00216441,-0.00071174,0.00009361,0.00052340,0.00000248,0
 .00000159,-0.00001645,0.00000816,0.00000920,0.00000371,-0.00001143,0.0
 0000807,-0.00000942,-0.00002491,0.00000814,0.00002407,0.00000449,-0.00
 000346,0.00000341,0.00001236,-0.00003054,0.00000394,0.00002884,-0.0000
 1157,0.00003770,0.00007646,0.00030928,-0.00016605,-0.00055830,-0.00042
 272,0.00005493,0.00053086,0.00049266,0.00004241,0.00037005,0.00063112,
 0.00027666,0.00026585,-0.00013965,-0.00039401,0.00071845,-0.00051461,0
 .00014695,0.00012735,0.00031711,-0.00031440,-0.00002703,-0.00003616,-0
 .00003288,0.00049918,0.00113954,0.00034838,-0.00007729,-0.00001865,0.0
 0006053,-0.00015317,0.00010327,-0.00000583,-0.00003530,-0.00000913,0.0
 0008300,-0.00025291,0.00134507,0.00054638,-0.00035064,-0.00121682,-0.0
 0007984,-0.00029152,-0.00045251,0.00004050,0.00011242,-0.00018317,0.00
 004330,-0.00001139,0.00003394,0.00001655,-0.00003114,-0.00000658,-0.00
 001202,-0.00010228,0.00017299,0.00027276,0.00011506,0.00009390,-0.0001
 6539,-0.00013922,-0.00011208,-0.00033803,-0.00017906,0.00057998,-0.000
 28960,-0.00035397,0.00008827,0.00006223,0.00083567,0.00041173,-0.00014
 435,0.00067946,-0.00040486,-0.00060456,0.00272288,0.00002095,0.0030395
 3,0.00025839,0.00056668,-0.00042968,0.00003640,-0.00041658,0.00020348,
 -0.00009707,-0.00003577,-0.00007790,-0.00004264,0.00013975,0.00024234,
 -0.00030409,0.00000808,-0.00106327,-0.00002707,0.00001796,0.00003045,-
 0.00000572,-0.00008557,0.00001611,-0.00096072,0.00020916,-0.00508847,-
 0.00051191,0.00012852,0.00006170,-0.00085752,-0.00006312,0.00047882,0.
 00028580,0.00012304,-0.00025002,-0.00008549,-0.00005498,-0.00000982,0.
 00000057,0.00002151,0.00002273,-0.00036393,-0.00001027,0.00017031,0.00
 011253,-0.00008880,-0.00008782,-0.00096994,0.00080105,-0.00014692,0.00
 013580,-0.00031616,0.00007454,0.00039762,-0.00018516,-0.00027795,0.000
 01826,0.00007664,-0.00004863,-0.00005882,0.00002188,0.00008535,0.00010
 685,0.00009230,-0.00021954,0.00004557,-0.00002510,0.00012668,-0.000009
 73,-0.00006232,0.00009342,-0.00032598,-0.00013475,-0.00009280,0.000202
 07,0.00005266,0.00012182,0.00004745,-0.00017341,-0.00038995,0.00089665
 ,-0.00106100,-0.00054109,-0.00008149,0.00071724,-0.00085274,0.00075503
 ,-0.00004503,0.00039623,-0.02020069,-0.01267100,0.01414642,-0.00242815
 ,0.00383055,0.00060547,0.00120224,-0.00021927,-0.00006332,-0.21531324,
 -0.11464025,0.12236118,-0.00610864,-0.00493367,0.00356752,0.01577790,0
 .00776415,-0.00432704,0.22527823,-0.00006400,0.00025338,-0.00027472,-0
 .00040236,-0.00023853,0.00059072,-0.00004536,0.00007050,0.00000089,0.0
 0001853,0.00004509,0.00013978,0.00000246,-0.00001399,0.00004210,0.0001
 1263,-0.00002330,0.00010825,0.00005962,0.00008358,-0.00005953,0.000000
 96,-0.00001720,-0.00003150,0.00003642,0.00002722,0.00001504,-0.0000081
 5,0.00000262,-0.00001319,0.00001328,-0.00000774,0.00000322,-0.00000348
 ,0.00001657,-0.00007598,-0.00002461,-0.00007351,-0.00012536,0.00008765
 ,0.00014786,0.00004092,0.00041102,0.00042785,-0.00058562,-0.00000137,-
 0.00004487,0.00003725,0.00000502,-0.00001261,-0.00000501,-0.00000541,0
 .00000693,-0.00000872,0.00000323,0.00005270,-0.00005662,0.00000431,-0.
 00001316,0.00001048,0.00000631,-0.00001160,0.00002357,0.00001116,0.000
 00407,0.00002020,0.00007677,0.00003559,0.00003950,0.00013890,0.0000995
 7,0.00024785,-0.00043729,0.00068469,-0.00113026,0.00185515,-0.00121817
 ,0.00107370,-0.00029690,-0.00023396,0.00011557,-0.00028691,-0.00006357
 ,-0.00027283,0.00005445,-0.00024047,0.00002260,-0.00000961,0.00003997,
 0.00031135,0.00018410,-0.00066758,-0.00146903,0.00003763,0.00016894,-0
 .00011419,0.00005012,0.00002751,0.00001100,0.00000648,-0.00000690,-0.0
 0003869,0.00046194,-0.00068134,-0.00077681,-0.00092448,-0.00014065,-0.
 00015183,0.00009263,-0.00059314,0.00043546,-0.00010176,0.00005717,-0.0
 0002254,0.00001465,-0.00000176,0.00001585,0.00000764,-0.00000881,0.,0.
 00007318,-0.00009366,0.00010228,-0.00000775,0.00010171,-0.00012069,-0.
 00003211,-0.00014834,-0.00018223,0.00029513,-0.00014805,0.00014285,0.0
 0004000,-0.00042623,-0.00020802,0.00039937,0.00031588,0.00030113,-0.00
 077264,-0.00004035,0.00052816,0.00060688,-0.00003421,0.00041870,0.0001
 8152,0.00056511,-0.00038093,-0.00021863,0.00013860,-0.00006485,-0.0000
 2573,-0.00003019,-0.00002050,0.00043218,-0.00001141,-0.00001510,-0.000
 04130,-0.00007649,-0.00018155,0.00001921,-0.00001204,0.00003883,-0.000
 18985,-0.00004743,-0.00003956,-0.00013911,-0.00251639,0.00018518,0.000
 24344,0.00000342,-0.00025014,-0.00018130,-0.00021177,-0.00004955,0.000
 03680,0.00001744,-0.00006294,-0.00000593,-0.00001099,0.00001163,-0.000
 00521,-0.00002557,-0.00002713,-0.00000631,-0.00013259,0.00007719,-0.00
 002218,0.00014086,0.00001408,0.00053860,0.00082859,-0.00119195,-0.0001
 7227,-0.00003824,0.00017697,0.00010234,0.00011243,0.00003907,-0.000015
 60,-0.00006879,-0.00002866,-0.00002696,-0.00003146,-0.00000980,0.00009
 842,-0.00003739,-0.00005696,-0.00001277,-0.00001481,0.00000468,0.00002
 349,-0.00002337,0.00004680,-0.00032031,0.00001908,0.00053024,-0.000055
 16,-0.00018605,-0.00016943,0.00007905,-0.00011307,-0.00022712,0.000159
 78,0.00221741,-0.00104160,-0.00057705,-0.00093689,0.00077496,-0.000360
 65,-0.00026133,0.00004280,0.01473590,0.01550035,-0.01303639,0.00422100
 ,-0.00270839,-0.00090374,-0.00002646,0.00019370,-0.00063676,-0.1136227
 6,-0.14460931,0.09073579,-0.01866507,-0.01078207,0.02023142,-0.0061674
 6,-0.00542016,0.00183774,0.11824293,0.15110349,0.00017540,-0.00026335,
 0.00002154,-0.00005004,0.00019990,-0.00017624,-0.00022741,0.00033580,-
 0.00021766,0.00005499,0.00006648,-0.00011745,-0.00002585,0.00008698,0.
 00000526,-0.00012559,-0.00000495,0.00001584,0.00000140,0.00004695,0.00
 000456,0.00000993,-0.00006092,0.00001496,-0.00007645,0.00002667,0.0000
 1746,0.00001785,-0.00001084,0.00001342,0.00001381,0.00002125,0.0000078
 5,0.00002487,-0.00013392,0.00004208,0.00005349,-0.00008164,0.00009343,
 -0.00054578,-0.00051566,-0.00070059,0.00026885,-0.00058870,-0.00030753
 ,-0.00000725,0.00003431,0.00000310,-0.00000949,-0.00001576,-0.00000635
 ,0.00000686,-0.00000536,0.00001090,0.00001171,-0.00005861,-0.00001029,
 0.00000029,0.00001475,-0.00000341,-0.00000993,0.00006058,0.00000474,-0
 .00002215,0.00002199,-0.00004182,0.00001554,0.00028698,-0.00042821,0.0
 0044419,0.00054210,-0.00023953,-0.00040436,-0.00080585,0.00041198,0.00
 078739,-0.00043307,0.00003319,-0.00047224,0.00039321,0.00082240,-0.000
 62475,0.00030246,-0.00042527,-0.00017659,-0.00044684,0.00043199,-0.000
 00116,0.00008539,-0.00000156,0.00024639,-0.00120341,0.00012103,0.00008
 717,0.00000386,-0.00014925,0.00010892,-0.00006513,0.00000580,0.0000300
 2,0.00002595,-0.00011658,0.00032258,-0.00199447,-0.00148331,-0.0003899
 1,0.00043290,-0.00062003,-0.00015143,0.00088616,-0.00026029,0.00003385
 ,0.00005402,-0.00000638,-0.00002020,-0.00002537,-0.00002409,0.00003335
 ,0.00002525,0.00000374,-0.00000931,0.00004309,-0.00044337,-0.00013822,
 -0.00026356,0.00023751,0.00022089,-0.00018059,0.00049808,-0.00024187,0
 .00020633,0.00026735,0.00021078,0.00022921,0.00029227,-0.00077301,-0.0
 0036782,-0.00034263,0.00084208,0.00059362,-0.00053284,-0.00075071,0.00
 000685,-0.00272208,0.00059756,-0.00053344,0.00006749,-0.00015156,0.000
 10666,-0.00019897,0.00009221,0.00002321,0.00009665,-0.00058285,0.00027
 850,0.00017888,0.00008697,0.00000217,0.00069442,0.00001020,-0.00000135
 ,0.00005405,-0.00038629,-0.00016368,0.00005469,-0.00299993,0.00048538,
 0.00098031,-0.00030313,-0.00069457,0.00028604,0.00071662,-0.00000138,-
 0.00001251,-0.00020131,-0.00013511,0.00012311,0.00006979,0.00004228,0.
 00002044,-0.00000535,-0.00000151,-0.00000333,0.00029705,0.00022235,-0.
 00006208,-0.00009878,-0.00010516,-0.00006453,0.00016654,-0.00112606,0.
 00171032,0.00006410,0.00030403,0.00004408,-0.00046026,0.00022810,0.000
 11508,-0.00000795,0.00002069,0.00002276,0.00007621,-0.00001168,-0.0000
 0363,0.00011117,-0.00014762,-0.00008439,-0.00002102,0.00002844,-0.0000
 6437,0.00006396,-0.00001653,0.00002784,-0.00022305,0.00044309,0.000089
 26,0.00027454,0.00000149,-0.00001535,0.00002296,-0.00032481,-0.0001040
 2,-0.00172291,-0.00086608,0.00160253,0.00046604,0.00036402,0.00014034,
 0.00000946,0.00020256,-0.00048104,0.00357611,-0.00073171,-0.00197847,-
 0.00085400,-0.00032313,0.00047104,0.00023794,0.00009272,-0.00070965,0.
 12152894,0.09070058,-0.15689639,-0.01414375,-0.00478658,0.01425617,0.0
 2430335,0.01434464,-0.01163711,-0.12937852,-0.09542774,0.15727659\\0.0
 0000438,0.00000372,-0.00000077,-0.00000104,0.00000223,0.00000541,0.000
 01058,-0.00000004,0.00000231,0.00000286,0.00000081,-0.00000358,0.00000
 727,0.00000223,-0.00000571,-0.00000016,0.00000017,0.00000030,0.0000043
 8,0.00000449,0.00000432,0.00000754,0.00000535,0.00000128,0.00000692,-0
 .00000183,-0.00000280,0.00000454,-0.00000174,-0.00000438,0.00000015,-0
 .00000328,-0.00000253,0.00000703,-0.00000069,-0.00000296,0.00000595,-0
 .00000185,-0.00000150,0.00000941,-0.00000440,-0.00000110,0.00000389,-0
 .00000015,0.00000041,-0.00000141,-0.00000023,-0.00000493,-0.00000038,-
 0.00000121,0.00000196,-0.00000075,-0.00000050,-0.00000201,0.00000809,0
 .00000005,0.00000391,-0.00000393,0.00000337,-0.00000191,0.00000483,0.0
 0000542,0.00000143,0.00001391,0.00000525,-0.00000378,0.00000910,0.0000
 0461,-0.00000486,-0.00000972,-0.00000140,0.00000307,0.00000008,-0.0000
 0733,0.00000356,-0.00000168,-0.00000360,-0.00000638,-0.00000334,0.0000
 0046,-0.00000385,0.00000358,-0.00000775,0.,-0.00000528,-0.00000060,0.0
 0000372,-0.00000968,-0.00000410,-0.00000451,-0.00000001,-0.00000238,-0
 .00000215,-0.00000404,-0.00000052,-0.00000072,-0.00000346,0.00000521,0
 .00000264,-0.00000789,0.00000048,0.00000084,0.00000576,0.00000379,0.00
 002160,-0.00000178,-0.00000237,-0.00000035,-0.00000403,-0.00000513,-0.
 00000114,-0.00000864,-0.00000092,0.00000271,-0.00001214,-0.00000067,0.
 00000617,-0.00000684,0.00000318,0.00000680,-0.00000787,-0.00000644,0.0
 0000512,-0.00000458,0.00000888,0.00000322,-0.00000584,0.00000625,-0.00
 000023,0.00000249,-0.00000390,-0.00000688,0.00000065,-0.00000374,-0.00
 000107,-0.00000136,0.00000075,0.00000075,-0.00000307,-0.00000788,-0.00
 000651,0.00000012,-0.00000598,-0.00000647,-0.00000472,0.00000147,-0.00
 000745,-0.00000960,-0.00000232,-0.00000146,-0.00000209,-0.00000463,-0.
 00000035,0.00000418,-0.00000134,-0.00000355,-0.00000366,-0.00000537,-0
 .00000385,-0.00000939,-0.00000739,-0.00000388,-0.00000154,-0.00000003,
 -0.00000041,0.00000882,-0.00000159,-0.00001324,0.00000402,-0.00000228,
 -0.00000123,-0.00000218,0.00000028,-0.00000215,-0.00000890,-0.00000323
 ,0.00000201,-0.00001016,-0.00000470,0.00000230,-0.00000940,-0.00000218
 ,0.00000064,-0.00000588,-0.00000334,-0.00000289,-0.00000459,-0.0000005
 7,0.00000852,-0.00000335,-0.00000594,-0.00000196,0.00000149,-0.0000035
 7,-0.00000980,-0.00000231,0.00000527,0.00000476,0.00000154,-0.00000048
 ,0.00000022,-0.00000020,-0.00000056,0.00000395,0.00000033,0.00000281,0
 .00000329,-0.00000179,0.00000462,0.00000676,0.00000241,0.00000460,0.00
 000557,0.00000085,0.00000414,0.00000581,0.00000163,0.00000598,0.000004
 47,-0.00000115,0.00000258,0.00000331,0.00000519,0.00000251,0.00000072,
 0.00000381,0.00000196,0.00000032,0.00000671,0.00000459,0.00000315,0.00
 000485,0.00000546,0.00000289,0.00000643,0.00000610,0.00000207,0.000007
 65,0.00000320,-0.00000068,0.00000941,-0.00000261,-0.00000552,-0.000005
 57,-0.00000295,-0.00000904,0.00000549,0.00000819,-0.00000109,-0.000002
 92,0.00000521,0.00000936\\\@


 NO HUMAN INVESTIGATION CAN BECOME REAL SCIENCE
 WITHOUT GOING THROUGH MATHEMATICAL PEOPLE.
 -- LEONARDO DA VINCI, IN "PENSIERI" CA. 1492
 Job cpu time:      17 days  3 hours 52 minutes  3.6 seconds.
 File lengths (MBytes):  RWF=  17376 Int=      0 D2E=      0 Chk=     99 Scr=      1
 Normal termination of Gaussian 09 at Fri Apr 29 18:50:12 2016.
