 Entering Gaussian System, Link 0=g09
 Initial command:
 /share/apps//g09/l1.exe "/scratch/Gau-11122.inp" -scrdir="/scratch/"
 Entering Link 1 = /share/apps//g09/l1.exe PID=     11123.
  
 Copyright (c) 1988,1990,1992,1993,1995,1998,2003,2009,2013,
            Gaussian, Inc.  All Rights Reserved.
  
 This is part of the Gaussian(R) 09 program.  It is based on
 the Gaussian(R) 03 system (copyright 2003, Gaussian, Inc.),
 the Gaussian(R) 98 system (copyright 1998, Gaussian, Inc.),
 the Gaussian(R) 94 system (copyright 1995, Gaussian, Inc.),
 the Gaussian 92(TM) system (copyright 1992, Gaussian, Inc.),
 the Gaussian 90(TM) system (copyright 1990, Gaussian, Inc.),
 the Gaussian 88(TM) system (copyright 1988, Gaussian, Inc.),
 the Gaussian 86(TM) system (copyright 1986, Carnegie Mellon
 University), and the Gaussian 82(TM) system (copyright 1983,
 Carnegie Mellon University). Gaussian is a federally registered
 trademark of Gaussian, Inc.
  
 This software contains proprietary and confidential information,
 including trade secrets, belonging to Gaussian, Inc.
  
 This software is provided under written license and may be
 used, copied, transmitted, or stored only in accord with that
 written license.
  
 The following legend is applicable only to US Government
 contracts under FAR:
  
                    RESTRICTED RIGHTS LEGEND
  
 Use, reproduction and disclosure by the US Government is
 subject to restrictions as set forth in subparagraphs (a)
 and (c) of the Commercial Computer Software - Restricted
 Rights clause in FAR 52.227-19.
  
 Gaussian, Inc.
 340 Quinnipiac St., Bldg. 40, Wallingford CT 06492
  
  
 ---------------------------------------------------------------
 Warning -- This program may not be used in any manner that
 competes with the business of Gaussian, Inc. or will provide
 assistance to any competitor of Gaussian, Inc.  The licensee
 of this program is prohibited from giving any competitor of
 Gaussian, Inc. access to this program.  By using this program,
 the user acknowledges that Gaussian, Inc. is engaged in the
 business of creating and licensing software in the field of
 computational chemistry and represents and warrants to the
 licensee that it is not a competitor of Gaussian, Inc. and that
 it will not use this program in any manner prohibited above.
 ---------------------------------------------------------------
  

 Cite this work as:
 Gaussian 09, Revision D.01,
 M. J. Frisch, G. W. Trucks, H. B. Schlegel, G. E. Scuseria, 
 M. A. Robb, J. R. Cheeseman, G. Scalmani, V. Barone, B. Mennucci, 
 G. A. Petersson, H. Nakatsuji, M. Caricato, X. Li, H. P. Hratchian, 
 A. F. Izmaylov, J. Bloino, G. Zheng, J. L. Sonnenberg, M. Hada, 
 M. Ehara, K. Toyota, R. Fukuda, J. Hasegawa, M. Ishida, T. Nakajima, 
 Y. Honda, O. Kitao, H. Nakai, T. Vreven, J. A. Montgomery, Jr., 
 J. E. Peralta, F. Ogliaro, M. Bearpark, J. J. Heyd, E. Brothers, 
 K. N. Kudin, V. N. Staroverov, T. Keith, R. Kobayashi, J. Normand, 
 K. Raghavachari, A. Rendell, J. C. Burant, S. S. Iyengar, J. Tomasi, 
 M. Cossi, N. Rega, J. M. Millam, M. Klene, J. E. Knox, J. B. Cross, 
 V. Bakken, C. Adamo, J. Jaramillo, R. Gomperts, R. E. Stratmann, 
 O. Yazyev, A. J. Austin, R. Cammi, C. Pomelli, J. W. Ochterski, 
 R. L. Martin, K. Morokuma, V. G. Zakrzewski, G. A. Voth, 
 P. Salvador, J. J. Dannenberg, S. Dapprich, A. D. Daniels, 
 O. Farkas, J. B. Foresman, J. V. Ortiz, J. Cioslowski, 
 and D. J. Fox, Gaussian, Inc., Wallingford CT, 2013.
 
 ******************************************
 Gaussian 09:  EM64L-G09RevD.01 24-Apr-2013
                30-Apr-2016 
 ******************************************
 %nproc=20
 Will use up to   20 processors via shared memory.
 %mem=80GB
 %chk=Tri_A131_of.chk
 ----------------------------------------------------------------------
 #P PBE1PBE/6-311+G(d,p) opt=ModRedundant freq optcyc=999 EmpiricalDisp
 ersion=GD3
 ----------------------------------------------------------------------
 1/6=999,14=-1,18=120,19=15,26=3,38=1/1,3;
 2/9=110,12=2,17=6,18=5,40=1/2;
 3/5=4,6=6,7=111,11=2,16=1,25=1,30=1,71=1,74=-13,124=31/1,2,3;
 4//1;
 5/5=2,38=5/2;
 6/7=2,8=2,9=2,10=2,28=1/1;
 7//1,2,3,16;
 1/6=999,14=-1,18=20,19=15,26=3/3(2);
 2/9=110/2;
 99//99;
 2/9=110/2;
 3/5=4,6=6,7=111,11=2,16=1,25=1,30=1,71=1,74=-13,124=31/1,2,3;
 4/5=5,16=3,69=1/1;
 5/5=2,38=5/2;
 7//1,2,3,16;
 1/6=999,14=-1,18=20,19=15,26=3/3(-5);
 2/9=110/2;
 6/7=2,8=2,9=2,10=2,19=2,28=1/1;
 99/9=1/99;
 Leave Link    1 at Sat Apr 30 04:00:22 2016, MaxMem= 10737418240 cpu:         4.1
 (Enter /share/apps//g09/l101.exe)
 -----
 trich
 -----
 Symbolic Z-matrix:
 Charge =  1 Multiplicity = 1
 O                    -0.73472  -0.25365   7.29711 
 C                    -1.30514  -0.83869   6.15035 
 C                    -0.28311  -1.05778   5.02294 
 C                     0.90797  -1.87597   5.55287 
 C                     1.48968  -1.22252   6.81102 
 C                     0.37824  -0.99104   7.84626 
 H                    -2.09551  -0.14256   5.83214 
 H                     0.08359  -0.06749   4.71199 
 H                     0.57922  -2.90186   5.77263 
 H                     2.22378  -1.91997   7.26527 
 H                     0.03954  -1.99138   8.17525 
 O                     2.15294  -0.04601   6.3476 
 O                     1.95102  -2.00429   4.56729 
 O                    -0.89967  -1.67161   3.88736 
 O                    -1.86348  -2.13684   6.3953 
 C                     0.83442  -0.26267   9.10071 
 H                    -0.04678  -0.07641   9.73663 
 H                     1.53453  -0.91935   9.6468 
 O                     1.46923   0.97623   8.73855 
 H                     1.75689   1.43633   9.54392 
 H                     2.17531   0.59191   7.09489 
 H                     2.45711  -1.16579   4.59932 
 H                    -1.70935  -2.13219   4.20328 
 O                    -3.35935  -4.5035    6.01684 
 C                    -3.11207  -4.72239   7.41153 
 C                    -2.89462  -3.37888   8.18109 
 C                    -3.01701  -2.16128   7.25328 
 C                    -4.32843  -2.24354   6.46075 
 C                    -4.46494  -3.62841   5.74785 
 H                    -3.98435  -5.23196   7.86309 
 H                    -1.88941  -3.38615   8.6226 
 H                    -3.02212  -1.26044   7.88696 
 H                    -5.13686  -2.17871   7.20677 
 H                    -5.39351  -4.10724   6.11747 
 O                    -4.45602  -1.175     5.51159 
 O                    -3.89437  -3.2155    9.19569 
 O                    -2.0652   -5.65246   7.52344 
 C                    -4.5897   -3.57177   4.23549 
 H                    -4.89963  -4.56396   3.86947 
 H                    -5.34547  -2.82342   3.96302 
 O                    -3.30782  -3.22843   3.65895 
 H                    -3.46531  -2.9203    2.75092 
 H                    -4.95172  -0.45518   5.93551 
 H                    -3.62857  -3.73682   9.97195 
 O                     0.96108  -5.96343   5.4419 
 C                     1.94247  -6.21108   6.46518 
 C                     1.69348  -5.24614   7.62159 
 C                     0.25677  -5.3468    8.13689 
 C                    -0.77472  -5.26384   7.00515 
 C                    -0.36875  -6.26197   5.89479 
 H                     1.85812  -7.26922   6.79738 
 H                     1.86667  -4.22905   7.22315 
 H                     0.1311   -6.33119   8.62846 
 H                    -0.40155  -7.28228   6.33135 
 H                    -0.8216   -4.24585   6.58932 
 O                     0.01854  -4.30554   9.09325 
 O                     2.53636  -5.49912   8.7449 
 O                     3.2033   -5.92995   5.95491 
 C                    -1.26029  -6.29571   4.6604 
 H                    -0.90646  -7.11341   4.01424 
 H                    -2.29366  -6.50787   4.96265 
 O                    -1.20399  -5.09041   3.88609 
 H                    -2.00108  -4.53657   4.05409 
 H                     0.70039  -4.41606   9.78146 
 H                     3.45895  -5.40425   8.44675 
 C                     3.69014  -6.87706   4.96892 
 H                     4.36205  -7.5925    5.47083 
 H                     2.83863  -7.43602   4.55203 
 C                     4.43497  -6.11036   3.88239 
 H                     4.8166   -6.84383   3.15242 
 H                     5.31954  -5.63379   4.33253 
 C                     3.59686  -5.03042   3.18074 
 H                     3.2377   -4.33233   3.95304 
 H                     4.25941  -4.45058   2.51729 
 C                     2.42042  -5.57797   2.36033 
 H                     2.79721  -6.23764   1.56199 
 H                     1.7629   -6.19475   2.99318 
 C                     1.57221  -4.50052   1.6894 
 H                     0.82774  -4.94987   1.01875 
 H                     2.1904   -3.80849   1.09936 
 N                     0.81766  -3.6873    2.69786 
 H                     0.22739  -2.95711   2.27741 
 H                     1.43733  -3.15478   3.35499 
 H                     0.15304  -4.28668   3.2652 
 
 The following ModRedundant input section has been read:
 B      45      84 B                                                           
 B      58      84 B                                                           
 B      56      84 B                                                           
 B      41      82 B                                                           
 B      62      82 B                                                           
 B      35      82 B                                                           
 B      13      83 B                                                           
 B      19      83 B                                                           
 B      14      83 B                                                           
 
 NAtoms=     84 NQM=       84 NQMF=       0 NMMI=      0 NMMIF=      0
                NMic=       0 NMicF=      0.
                    Isotopes and Nuclear Properties:
 (Nuclear quadrupole moments (NQMom) in fm**2, nuclear magnetic moments (NMagM)
  in nuclear magnetons)

  Atom         1           2           3           4           5           6           7           8           9          10
 IAtWgt=          16          12          12          12          12          12           1           1           1           1
 AtmWgt=  15.9949146  12.0000000  12.0000000  12.0000000  12.0000000  12.0000000   1.0078250   1.0078250   1.0078250   1.0078250
 NucSpn=           0           0           0           0           0           0           1           1           1           1
 AtZEff=   0.0000000   0.0000000   0.0000000   0.0000000   0.0000000   0.0000000   0.0000000   0.0000000   0.0000000   0.0000000
 NQMom=    0.0000000   0.0000000   0.0000000   0.0000000   0.0000000   0.0000000   0.0000000   0.0000000   0.0000000   0.0000000
 NMagM=    0.0000000   0.0000000   0.0000000   0.0000000   0.0000000   0.0000000   2.7928460   2.7928460   2.7928460   2.7928460
 AtZNuc=   8.0000000   6.0000000   6.0000000   6.0000000   6.0000000   6.0000000   1.0000000   1.0000000   1.0000000   1.0000000

  Atom        11          12          13          14          15          16          17          18          19          20
 IAtWgt=           1          16          16          16          16          12           1           1          16           1
 AtmWgt=   1.0078250  15.9949146  15.9949146  15.9949146  15.9949146  12.0000000   1.0078250   1.0078250  15.9949146   1.0078250
 NucSpn=           1           0           0           0           0           0           1           1           0           1
 AtZEff=   0.0000000   0.0000000   0.0000000   0.0000000   0.0000000   0.0000000   0.0000000   0.0000000   0.0000000   0.0000000
 NQMom=    0.0000000   0.0000000   0.0000000   0.0000000   0.0000000   0.0000000   0.0000000   0.0000000   0.0000000   0.0000000
 NMagM=    2.7928460   0.0000000   0.0000000   0.0000000   0.0000000   0.0000000   2.7928460   2.7928460   0.0000000   2.7928460
 AtZNuc=   1.0000000   8.0000000   8.0000000   8.0000000   8.0000000   6.0000000   1.0000000   1.0000000   8.0000000   1.0000000

  Atom        21          22          23          24          25          26          27          28          29          30
 IAtWgt=           1           1           1          16          12          12          12          12          12           1
 AtmWgt=   1.0078250   1.0078250   1.0078250  15.9949146  12.0000000  12.0000000  12.0000000  12.0000000  12.0000000   1.0078250
 NucSpn=           1           1           1           0           0           0           0           0           0           1
 AtZEff=   0.0000000   0.0000000   0.0000000   0.0000000   0.0000000   0.0000000   0.0000000   0.0000000   0.0000000   0.0000000
 NQMom=    0.0000000   0.0000000   0.0000000   0.0000000   0.0000000   0.0000000   0.0000000   0.0000000   0.0000000   0.0000000
 NMagM=    2.7928460   2.7928460   2.7928460   0.0000000   0.0000000   0.0000000   0.0000000   0.0000000   0.0000000   2.7928460
 AtZNuc=   1.0000000   1.0000000   1.0000000   8.0000000   6.0000000   6.0000000   6.0000000   6.0000000   6.0000000   1.0000000

  Atom        31          32          33          34          35          36          37          38          39          40
 IAtWgt=           1           1           1           1          16          16          16          12           1           1
 AtmWgt=   1.0078250   1.0078250   1.0078250   1.0078250  15.9949146  15.9949146  15.9949146  12.0000000   1.0078250   1.0078250
 NucSpn=           1           1           1           1           0           0           0           0           1           1
 AtZEff=   0.0000000   0.0000000   0.0000000   0.0000000   0.0000000   0.0000000   0.0000000   0.0000000   0.0000000   0.0000000
 NQMom=    0.0000000   0.0000000   0.0000000   0.0000000   0.0000000   0.0000000   0.0000000   0.0000000   0.0000000   0.0000000
 NMagM=    2.7928460   2.7928460   2.7928460   2.7928460   0.0000000   0.0000000   0.0000000   0.0000000   2.7928460   2.7928460
 AtZNuc=   1.0000000   1.0000000   1.0000000   1.0000000   8.0000000   8.0000000   8.0000000   6.0000000   1.0000000   1.0000000

  Atom        41          42          43          44          45          46          47          48          49          50
 IAtWgt=          16           1           1           1          16          12          12          12          12          12
 AtmWgt=  15.9949146   1.0078250   1.0078250   1.0078250  15.9949146  12.0000000  12.0000000  12.0000000  12.0000000  12.0000000
 NucSpn=           0           1           1           1           0           0           0           0           0           0
 AtZEff=   0.0000000   0.0000000   0.0000000   0.0000000   0.0000000   0.0000000   0.0000000   0.0000000   0.0000000   0.0000000
 NQMom=    0.0000000   0.0000000   0.0000000   0.0000000   0.0000000   0.0000000   0.0000000   0.0000000   0.0000000   0.0000000
 NMagM=    0.0000000   2.7928460   2.7928460   2.7928460   0.0000000   0.0000000   0.0000000   0.0000000   0.0000000   0.0000000
 AtZNuc=   8.0000000   1.0000000   1.0000000   1.0000000   8.0000000   6.0000000   6.0000000   6.0000000   6.0000000   6.0000000

  Atom        51          52          53          54          55          56          57          58          59          60
 IAtWgt=           1           1           1           1           1          16          16          16          12           1
 AtmWgt=   1.0078250   1.0078250   1.0078250   1.0078250   1.0078250  15.9949146  15.9949146  15.9949146  12.0000000   1.0078250
 NucSpn=           1           1           1           1           1           0           0           0           0           1
 AtZEff=   0.0000000   0.0000000   0.0000000   0.0000000   0.0000000   0.0000000   0.0000000   0.0000000   0.0000000   0.0000000
 NQMom=    0.0000000   0.0000000   0.0000000   0.0000000   0.0000000   0.0000000   0.0000000   0.0000000   0.0000000   0.0000000
 NMagM=    2.7928460   2.7928460   2.7928460   2.7928460   2.7928460   0.0000000   0.0000000   0.0000000   0.0000000   2.7928460
 AtZNuc=   1.0000000   1.0000000   1.0000000   1.0000000   1.0000000   8.0000000   8.0000000   8.0000000   6.0000000   1.0000000

  Atom        61          62          63          64          65          66          67          68          69          70
 IAtWgt=           1          16           1           1           1          12           1           1          12           1
 AtmWgt=   1.0078250  15.9949146   1.0078250   1.0078250   1.0078250  12.0000000   1.0078250   1.0078250  12.0000000   1.0078250
 NucSpn=           1           0           1           1           1           0           1           1           0           1
 AtZEff=   0.0000000   0.0000000   0.0000000   0.0000000   0.0000000   0.0000000   0.0000000   0.0000000   0.0000000   0.0000000
 NQMom=    0.0000000   0.0000000   0.0000000   0.0000000   0.0000000   0.0000000   0.0000000   0.0000000   0.0000000   0.0000000
 NMagM=    2.7928460   0.0000000   2.7928460   2.7928460   2.7928460   0.0000000   2.7928460   2.7928460   0.0000000   2.7928460
 AtZNuc=   1.0000000   8.0000000   1.0000000   1.0000000   1.0000000   6.0000000   1.0000000   1.0000000   6.0000000   1.0000000

  Atom        71          72          73          74          75          76          77          78          79          80
 IAtWgt=           1          12           1           1          12           1           1          12           1           1
 AtmWgt=   1.0078250  12.0000000   1.0078250   1.0078250  12.0000000   1.0078250   1.0078250  12.0000000   1.0078250   1.0078250
 NucSpn=           1           0           1           1           0           1           1           0           1           1
 AtZEff=   0.0000000   0.0000000   0.0000000   0.0000000   0.0000000   0.0000000   0.0000000   0.0000000   0.0000000   0.0000000
 NQMom=    0.0000000   0.0000000   0.0000000   0.0000000   0.0000000   0.0000000   0.0000000   0.0000000   0.0000000   0.0000000
 NMagM=    2.7928460   0.0000000   2.7928460   2.7928460   0.0000000   2.7928460   2.7928460   0.0000000   2.7928460   2.7928460
 AtZNuc=   1.0000000   6.0000000   1.0000000   1.0000000   6.0000000   1.0000000   1.0000000   6.0000000   1.0000000   1.0000000

  Atom        81          82          83          84
 IAtWgt=          14           1           1           1
 AtmWgt=  14.0030740   1.0078250   1.0078250   1.0078250
 NucSpn=           2           1           1           1
 AtZEff=   0.0000000   0.0000000   0.0000000   0.0000000
 NQMom=    2.0440000   0.0000000   0.0000000   0.0000000
 NMagM=    0.4037610   2.7928460   2.7928460   2.7928460
 AtZNuc=   7.0000000   1.0000000   1.0000000   1.0000000
 Leave Link  101 at Sat Apr 30 04:00:23 2016, MaxMem= 10737418240 cpu:         6.5
 (Enter /share/apps//g09/l103.exe)

 GradGradGradGradGradGradGradGradGradGradGradGradGradGradGradGradGradGrad
 Berny optimization.
 Initialization pass.
                           ----------------------------
                           !    Initial Parameters    !
                           ! (Angstroms and Degrees)  !
 --------------------------                            --------------------------
 ! Name  Definition              Value          Derivative Info.                !
 --------------------------------------------------------------------------------
 ! R1    R(1,2)                  1.4081         estimate D2E/DX2                !
 ! R2    R(1,6)                  1.4436         estimate D2E/DX2                !
 ! R3    R(2,3)                  1.5374         estimate D2E/DX2                !
 ! R4    R(2,7)                  1.1002         estimate D2E/DX2                !
 ! R5    R(2,15)                 1.4342         estimate D2E/DX2                !
 ! R6    R(3,4)                  1.5391         estimate D2E/DX2                !
 ! R7    R(3,8)                  1.1008         estimate D2E/DX2                !
 ! R8    R(3,14)                 1.4306         estimate D2E/DX2                !
 ! R9    R(4,5)                  1.5324         estimate D2E/DX2                !
 ! R10   R(4,9)                  1.0995         estimate D2E/DX2                !
 ! R11   R(4,13)                 1.4408         estimate D2E/DX2                !
 ! R12   R(5,6)                  1.5364         estimate D2E/DX2                !
 ! R13   R(5,10)                 1.1098         estimate D2E/DX2                !
 ! R14   R(5,12)                 1.4279         estimate D2E/DX2                !
 ! R15   R(6,11)                 1.1062         estimate D2E/DX2                !
 ! R16   R(6,16)                 1.5206         estimate D2E/DX2                !
 ! R17   R(12,21)                0.9828         estimate D2E/DX2                !
 ! R18   R(13,22)                0.9799         estimate D2E/DX2                !
 ! R19   R(13,83)                1.7485         estimate D2E/DX2                !
 ! R20   R(14,23)                0.9836         estimate D2E/DX2                !
 ! R21   R(14,83)                2.8186         estimate D2E/DX2                !
 ! R22   R(15,27)                1.4378         estimate D2E/DX2                !
 ! R23   R(16,17)                1.1025         estimate D2E/DX2                !
 ! R24   R(16,18)                1.1044         estimate D2E/DX2                !
 ! R25   R(16,19)                1.4384         estimate D2E/DX2                !
 ! R26   R(19,20)                0.9711         estimate D2E/DX2                !
 ! R27   R(19,83)                6.7859         estimate D2E/DX2                !
 ! R28   R(24,25)                1.4333         estimate D2E/DX2                !
 ! R29   R(24,29)                1.4354         estimate D2E/DX2                !
 ! R30   R(25,26)                1.5635         estimate D2E/DX2                !
 ! R31   R(25,30)                1.1065         estimate D2E/DX2                !
 ! R32   R(25,37)                1.4048         estimate D2E/DX2                !
 ! R33   R(26,27)                1.5357         estimate D2E/DX2                !
 ! R34   R(26,31)                1.0979         estimate D2E/DX2                !
 ! R35   R(26,36)                1.4337         estimate D2E/DX2                !
 ! R36   R(27,28)                1.5345         estimate D2E/DX2                !
 ! R37   R(27,32)                1.1014         estimate D2E/DX2                !
 ! R38   R(28,29)                1.5636         estimate D2E/DX2                !
 ! R39   R(28,33)                1.102          estimate D2E/DX2                !
 ! R40   R(28,35)                1.4349         estimate D2E/DX2                !
 ! R41   R(29,34)                1.1082         estimate D2E/DX2                !
 ! R42   R(29,38)                1.5186         estimate D2E/DX2                !
 ! R43   R(35,43)                0.9714         estimate D2E/DX2                !
 ! R44   R(35,82)                5.9641         estimate D2E/DX2                !
 ! R45   R(36,44)                0.9721         estimate D2E/DX2                !
 ! R46   R(37,49)                1.4439         estimate D2E/DX2                !
 ! R47   R(38,39)                1.102          estimate D2E/DX2                !
 ! R48   R(38,40)                1.0979         estimate D2E/DX2                !
 ! R49   R(38,41)                1.4469         estimate D2E/DX2                !
 ! R50   R(41,42)                0.9717         estimate D2E/DX2                !
 ! R51   R(41,82)                3.8053         estimate D2E/DX2                !
 ! R52   R(45,46)                1.4393         estimate D2E/DX2                !
 ! R53   R(45,50)                1.4362         estimate D2E/DX2                !
 ! R54   R(45,84)                2.864          estimate D2E/DX2                !
 ! R55   R(46,47)                1.5266         estimate D2E/DX2                !
 ! R56   R(46,51)                1.1123         estimate D2E/DX2                !
 ! R57   R(46,58)                1.3889         estimate D2E/DX2                !
 ! R58   R(47,48)                1.5296         estimate D2E/DX2                !
 ! R59   R(47,52)                1.106          estimate D2E/DX2                !
 ! R60   R(47,57)                1.427          estimate D2E/DX2                !
 ! R61   R(48,49)                1.5335         estimate D2E/DX2                !
 ! R62   R(48,53)                1.1075         estimate D2E/DX2                !
 ! R63   R(48,56)                1.4337         estimate D2E/DX2                !
 ! R64   R(49,50)                1.5472         estimate D2E/DX2                !
 ! R65   R(49,55)                1.1006         estimate D2E/DX2                !
 ! R66   R(50,54)                1.1103         estimate D2E/DX2                !
 ! R67   R(50,59)                1.5231         estimate D2E/DX2                !
 ! R68   R(56,64)                0.9751         estimate D2E/DX2                !
 ! R69   R(56,84)                5.8296         estimate D2E/DX2                !
 ! R70   R(57,65)                0.9742         estimate D2E/DX2                !
 ! R71   R(58,66)                1.4513         estimate D2E/DX2                !
 ! R72   R(58,84)                4.3862         estimate D2E/DX2                !
 ! R73   R(59,60)                1.1006         estimate D2E/DX2                !
 ! R74   R(59,61)                1.0974         estimate D2E/DX2                !
 ! R75   R(59,62)                1.4337         estimate D2E/DX2                !
 ! R76   R(62,63)                0.985          estimate D2E/DX2                !
 ! R77   R(62,82)                3.0311         estimate D2E/DX2                !
 ! R78   R(66,67)                1.1024         estimate D2E/DX2                !
 ! R79   R(66,68)                1.1006         estimate D2E/DX2                !
 ! R80   R(66,69)                1.5242         estimate D2E/DX2                !
 ! R81   R(69,70)                1.1029         estimate D2E/DX2                !
 ! R82   R(69,71)                1.101          estimate D2E/DX2                !
 ! R83   R(69,72)                1.5366         estimate D2E/DX2                !
 ! R84   R(72,73)                1.1013         estimate D2E/DX2                !
 ! R85   R(72,74)                1.1024         estimate D2E/DX2                !
 ! R86   R(72,75)                1.5352         estimate D2E/DX2                !
 ! R87   R(75,76)                1.102          estimate D2E/DX2                !
 ! R88   R(75,77)                1.1015         estimate D2E/DX2                !
 ! R89   R(75,78)                1.5266         estimate D2E/DX2                !
 ! R90   R(78,79)                1.0981         estimate D2E/DX2                !
 ! R91   R(78,80)                1.0996         estimate D2E/DX2                !
 ! R92   R(78,81)                1.4992         estimate D2E/DX2                !
 ! R93   R(81,82)                1.0288         estimate D2E/DX2                !
 ! R94   R(81,83)                1.0485         estimate D2E/DX2                !
 ! R95   R(81,84)                1.0596         estimate D2E/DX2                !
 ! A1    A(2,1,6)              114.1981         estimate D2E/DX2                !
 ! A2    A(1,2,3)              112.7761         estimate D2E/DX2                !
 ! A3    A(1,2,7)              105.288          estimate D2E/DX2                !
 ! A4    A(1,2,15)             113.2463         estimate D2E/DX2                !
 ! A5    A(3,2,7)              110.8317         estimate D2E/DX2                !
 ! A6    A(3,2,15)             104.777          estimate D2E/DX2                !
 ! A7    A(7,2,15)             110.0244         estimate D2E/DX2                !
 ! A8    A(2,3,4)              109.7379         estimate D2E/DX2                !
 ! A9    A(2,3,8)              107.4809         estimate D2E/DX2                !
 ! A10   A(2,3,14)             110.9006         estimate D2E/DX2                !
 ! A11   A(4,3,8)              108.5228         estimate D2E/DX2                !
 ! A12   A(4,3,14)             112.2559         estimate D2E/DX2                !
 ! A13   A(8,3,14)             107.7788         estimate D2E/DX2                !
 ! A14   A(3,4,5)              110.4727         estimate D2E/DX2                !
 ! A15   A(3,4,9)              109.478          estimate D2E/DX2                !
 ! A16   A(3,4,13)             111.8429         estimate D2E/DX2                !
 ! A17   A(5,4,9)              110.3211         estimate D2E/DX2                !
 ! A18   A(5,4,13)             108.9533         estimate D2E/DX2                !
 ! A19   A(9,4,13)             105.6701         estimate D2E/DX2                !
 ! A20   A(4,5,6)              110.0503         estimate D2E/DX2                !
 ! A21   A(4,5,10)             108.6122         estimate D2E/DX2                !
 ! A22   A(4,5,12)             105.142          estimate D2E/DX2                !
 ! A23   A(6,5,10)             107.301          estimate D2E/DX2                !
 ! A24   A(6,5,12)             115.5034         estimate D2E/DX2                !
 ! A25   A(10,5,12)            110.0837         estimate D2E/DX2                !
 ! A26   A(1,6,5)              112.2315         estimate D2E/DX2                !
 ! A27   A(1,6,11)             109.8161         estimate D2E/DX2                !
 ! A28   A(1,6,16)             107.4836         estimate D2E/DX2                !
 ! A29   A(5,6,11)             106.5973         estimate D2E/DX2                !
 ! A30   A(5,6,16)             114.2682         estimate D2E/DX2                !
 ! A31   A(11,6,16)            106.2405         estimate D2E/DX2                !
 ! A32   A(5,12,21)            107.3743         estimate D2E/DX2                !
 ! A33   A(4,13,22)            105.9815         estimate D2E/DX2                !
 ! A34   A(4,13,83)            108.6754         estimate D2E/DX2                !
 ! A35   A(22,13,83)           137.5132         estimate D2E/DX2                !
 ! A36   A(3,14,23)            107.5021         estimate D2E/DX2                !
 ! A37   A(3,14,83)             91.0524         estimate D2E/DX2                !
 ! A38   A(23,14,83)           119.7865         estimate D2E/DX2                !
 ! A39   A(2,15,27)            115.4439         estimate D2E/DX2                !
 ! A40   A(6,16,17)            108.4797         estimate D2E/DX2                !
 ! A41   A(6,16,18)            108.2578         estimate D2E/DX2                !
 ! A42   A(6,16,19)            109.7094         estimate D2E/DX2                !
 ! A43   A(17,16,18)           108.7797         estimate D2E/DX2                !
 ! A44   A(17,16,19)           110.6368         estimate D2E/DX2                !
 ! A45   A(18,16,19)           110.9083         estimate D2E/DX2                !
 ! A46   A(16,19,20)           109.2684         estimate D2E/DX2                !
 ! A47   A(16,19,83)            70.9342         estimate D2E/DX2                !
 ! A48   A(20,19,83)           161.3972         estimate D2E/DX2                !
 ! A49   A(25,24,29)           114.1006         estimate D2E/DX2                !
 ! A50   A(24,25,26)           111.8218         estimate D2E/DX2                !
 ! A51   A(24,25,30)           109.3554         estimate D2E/DX2                !
 ! A52   A(24,25,37)           107.8906         estimate D2E/DX2                !
 ! A53   A(26,25,30)           107.7273         estimate D2E/DX2                !
 ! A54   A(26,25,37)           115.2175         estimate D2E/DX2                !
 ! A55   A(30,25,37)           104.4803         estimate D2E/DX2                !
 ! A56   A(25,26,27)           111.8916         estimate D2E/DX2                !
 ! A57   A(25,26,31)           108.6373         estimate D2E/DX2                !
 ! A58   A(25,26,36)           110.4416         estimate D2E/DX2                !
 ! A59   A(27,26,31)           108.7337         estimate D2E/DX2                !
 ! A60   A(27,26,36)           106.3569         estimate D2E/DX2                !
 ! A61   A(31,26,36)           110.7691         estimate D2E/DX2                !
 ! A62   A(15,27,26)           108.0625         estimate D2E/DX2                !
 ! A63   A(15,27,28)           112.2322         estimate D2E/DX2                !
 ! A64   A(15,27,32)           109.4592         estimate D2E/DX2                !
 ! A65   A(26,27,28)           109.7333         estimate D2E/DX2                !
 ! A66   A(26,27,32)           107.5332         estimate D2E/DX2                !
 ! A67   A(28,27,32)           109.6959         estimate D2E/DX2                !
 ! A68   A(27,28,29)           110.9516         estimate D2E/DX2                !
 ! A69   A(27,28,33)           105.9128         estimate D2E/DX2                !
 ! A70   A(27,28,35)           112.1918         estimate D2E/DX2                !
 ! A71   A(29,28,33)           107.2613         estimate D2E/DX2                !
 ! A72   A(29,28,35)           110.5            estimate D2E/DX2                !
 ! A73   A(33,28,35)           109.8022         estimate D2E/DX2                !
 ! A74   A(24,29,28)           112.7851         estimate D2E/DX2                !
 ! A75   A(24,29,34)           108.6298         estimate D2E/DX2                !
 ! A76   A(24,29,38)           105.8218         estimate D2E/DX2                !
 ! A77   A(28,29,34)           107.6846         estimate D2E/DX2                !
 ! A78   A(28,29,38)           115.3549         estimate D2E/DX2                !
 ! A79   A(34,29,38)           106.227          estimate D2E/DX2                !
 ! A80   A(28,35,43)           107.9705         estimate D2E/DX2                !
 ! A81   A(28,35,82)            93.8052         estimate D2E/DX2                !
 ! A82   A(43,35,82)           149.1835         estimate D2E/DX2                !
 ! A83   A(26,36,44)           108.2592         estimate D2E/DX2                !
 ! A84   A(25,37,49)           117.3369         estimate D2E/DX2                !
 ! A85   A(29,38,39)           108.6812         estimate D2E/DX2                !
 ! A86   A(29,38,40)           109.216          estimate D2E/DX2                !
 ! A87   A(29,38,41)           109.4452         estimate D2E/DX2                !
 ! A88   A(39,38,40)           109.7337         estimate D2E/DX2                !
 ! A89   A(39,38,41)           109.2968         estimate D2E/DX2                !
 ! A90   A(40,38,41)           110.44           estimate D2E/DX2                !
 ! A91   A(38,41,42)           107.6982         estimate D2E/DX2                !
 ! A92   A(42,41,82)            77.8015         estimate D2E/DX2                !
 ! A93   A(46,45,50)           111.8016         estimate D2E/DX2                !
 ! A94   A(46,45,84)           146.4559         estimate D2E/DX2                !
 ! A95   A(50,45,84)            95.7462         estimate D2E/DX2                !
 ! A96   A(45,46,47)           108.578          estimate D2E/DX2                !
 ! A97   A(45,46,51)           108.9246         estimate D2E/DX2                !
 ! A98   A(45,46,58)           108.8414         estimate D2E/DX2                !
 ! A99   A(47,46,51)           111.2675         estimate D2E/DX2                !
 ! A100  A(47,46,58)           107.363          estimate D2E/DX2                !
 ! A101  A(51,46,58)           111.7853         estimate D2E/DX2                !
 ! A102  A(46,47,48)           111.5179         estimate D2E/DX2                !
 ! A103  A(46,47,52)           106.4302         estimate D2E/DX2                !
 ! A104  A(46,47,57)           112.825          estimate D2E/DX2                !
 ! A105  A(48,47,52)           109.2055         estimate D2E/DX2                !
 ! A106  A(48,47,57)           106.137          estimate D2E/DX2                !
 ! A107  A(52,47,57)           110.7401         estimate D2E/DX2                !
 ! A108  A(47,48,49)           112.3082         estimate D2E/DX2                !
 ! A109  A(47,48,53)           108.337          estimate D2E/DX2                !
 ! A110  A(47,48,56)           109.45           estimate D2E/DX2                !
 ! A111  A(49,48,53)           107.4178         estimate D2E/DX2                !
 ! A112  A(49,48,56)           109.9514         estimate D2E/DX2                !
 ! A113  A(53,48,56)           109.3061         estimate D2E/DX2                !
 ! A114  A(37,49,48)           108.7646         estimate D2E/DX2                !
 ! A115  A(37,49,50)           108.57           estimate D2E/DX2                !
 ! A116  A(37,49,55)           110.2715         estimate D2E/DX2                !
 ! A117  A(48,49,50)           108.556          estimate D2E/DX2                !
 ! A118  A(48,49,55)           110.9471         estimate D2E/DX2                !
 ! A119  A(50,49,55)           109.6762         estimate D2E/DX2                !
 ! A120  A(45,50,49)           109.5817         estimate D2E/DX2                !
 ! A121  A(45,50,54)           110.0214         estimate D2E/DX2                !
 ! A122  A(45,50,59)           106.9202         estimate D2E/DX2                !
 ! A123  A(49,50,54)           107.6322         estimate D2E/DX2                !
 ! A124  A(49,50,59)           116.2522         estimate D2E/DX2                !
 ! A125  A(54,50,59)           106.3215         estimate D2E/DX2                !
 ! A126  A(48,56,64)           105.8005         estimate D2E/DX2                !
 ! A127  A(48,56,84)            48.0607         estimate D2E/DX2                !
 ! A128  A(64,56,84)           133.6179         estimate D2E/DX2                !
 ! A129  A(47,57,65)           107.5297         estimate D2E/DX2                !
 ! A130  A(46,58,66)           114.9626         estimate D2E/DX2                !
 ! A131  A(46,58,84)            70.7212         estimate D2E/DX2                !
 ! A132  A(66,58,84)            93.5064         estimate D2E/DX2                !
 ! A133  A(50,59,60)           107.7036         estimate D2E/DX2                !
 ! A134  A(50,59,61)           109.4071         estimate D2E/DX2                !
 ! A135  A(50,59,62)           113.3351         estimate D2E/DX2                !
 ! A136  A(60,59,61)           108.7113         estimate D2E/DX2                !
 ! A137  A(60,59,62)           107.1512         estimate D2E/DX2                !
 ! A138  A(61,59,62)           110.3816         estimate D2E/DX2                !
 ! A139  A(59,62,63)           110.4135         estimate D2E/DX2                !
 ! A140  A(59,62,82)           153.7482         estimate D2E/DX2                !
 ! A141  A(63,62,82)            94.412          estimate D2E/DX2                !
 ! A142  A(58,66,67)           108.5829         estimate D2E/DX2                !
 ! A143  A(58,66,68)           109.2232         estimate D2E/DX2                !
 ! A144  A(58,66,69)           108.6609         estimate D2E/DX2                !
 ! A145  A(67,66,68)           108.3259         estimate D2E/DX2                !
 ! A146  A(67,66,69)           110.6815         estimate D2E/DX2                !
 ! A147  A(68,66,69)           111.317          estimate D2E/DX2                !
 ! A148  A(66,69,70)           107.8405         estimate D2E/DX2                !
 ! A149  A(66,69,71)           108.5961         estimate D2E/DX2                !
 ! A150  A(66,69,72)           114.3627         estimate D2E/DX2                !
 ! A151  A(70,69,71)           106.287          estimate D2E/DX2                !
 ! A152  A(70,69,72)           110.7261         estimate D2E/DX2                !
 ! A153  A(71,69,72)           108.7051         estimate D2E/DX2                !
 ! A154  A(69,72,73)           107.6487         estimate D2E/DX2                !
 ! A155  A(69,72,74)           108.4613         estimate D2E/DX2                !
 ! A156  A(69,72,75)           114.2884         estimate D2E/DX2                !
 ! A157  A(73,72,74)           106.537          estimate D2E/DX2                !
 ! A158  A(73,72,75)           110.5443         estimate D2E/DX2                !
 ! A159  A(74,72,75)           109.0582         estimate D2E/DX2                !
 ! A160  A(72,75,76)           109.7928         estimate D2E/DX2                !
 ! A161  A(72,75,77)           110.4946         estimate D2E/DX2                !
 ! A162  A(72,75,78)           114.1364         estimate D2E/DX2                !
 ! A163  A(76,75,77)           106.5664         estimate D2E/DX2                !
 ! A164  A(76,75,78)           107.1016         estimate D2E/DX2                !
 ! A165  A(77,75,78)           108.4239         estimate D2E/DX2                !
 ! A166  A(75,78,79)           110.8718         estimate D2E/DX2                !
 ! A167  A(75,78,80)           111.5697         estimate D2E/DX2                !
 ! A168  A(75,78,81)           111.5215         estimate D2E/DX2                !
 ! A169  A(79,78,80)           108.1157         estimate D2E/DX2                !
 ! A170  A(79,78,81)           106.951          estimate D2E/DX2                !
 ! A171  A(80,78,81)           107.6082         estimate D2E/DX2                !
 ! A172  A(78,81,82)           113.507          estimate D2E/DX2                !
 ! A173  A(78,81,83)           113.5539         estimate D2E/DX2                !
 ! A174  A(78,81,84)           111.6536         estimate D2E/DX2                !
 ! A175  A(82,81,83)           103.5769         estimate D2E/DX2                !
 ! A176  A(82,81,84)           105.095          estimate D2E/DX2                !
 ! A177  A(83,81,84)           108.8084         estimate D2E/DX2                !
 ! A178  A(35,82,41)            25.161          estimate D2E/DX2                !
 ! A179  A(35,82,62)            63.3638         estimate D2E/DX2                !
 ! A180  A(35,82,81)           116.1688         estimate D2E/DX2                !
 ! A181  A(41,82,62)            47.0326         estimate D2E/DX2                !
 ! A182  A(41,82,81)           109.5152         estimate D2E/DX2                !
 ! A183  A(62,82,81)            63.5454         estimate D2E/DX2                !
 ! A184  A(13,83,14)            76.4908         estimate D2E/DX2                !
 ! A185  A(13,83,19)            17.824          estimate D2E/DX2                !
 ! A186  A(13,83,81)           160.4497         estimate D2E/DX2                !
 ! A187  A(14,83,19)            62.2074         estimate D2E/DX2                !
 ! A188  A(14,83,81)            84.008          estimate D2E/DX2                !
 ! A189  A(19,83,81)           144.0139         estimate D2E/DX2                !
 ! A190  A(45,84,56)            40.957          estimate D2E/DX2                !
 ! A191  A(45,84,58)            28.1638         estimate D2E/DX2                !
 ! A192  A(45,84,81)           124.1334         estimate D2E/DX2                !
 ! A193  A(56,84,58)            53.2576         estimate D2E/DX2                !
 ! A194  A(56,84,81)           123.4741         estimate D2E/DX2                !
 ! A195  A(58,84,81)            95.9731         estimate D2E/DX2                !
 ! A196  L(38,41,82,42,-1)     185.4996         estimate D2E/DX2                !
 ! A197  L(38,41,82,42,-2)     188.7059         estimate D2E/DX2                !
 ! D1    D(6,1,2,3)            -56.4306         estimate D2E/DX2                !
 ! D2    D(6,1,2,7)           -177.4025         estimate D2E/DX2                !
 ! D3    D(6,1,2,15)            62.3481         estimate D2E/DX2                !
 ! D4    D(2,1,6,5)             55.8987         estimate D2E/DX2                !
 ! D5    D(2,1,6,11)           -62.4795         estimate D2E/DX2                !
 ! D6    D(2,1,6,16)          -177.641          estimate D2E/DX2                !
 ! D7    D(1,2,3,4)             54.5157         estimate D2E/DX2                !
 ! D8    D(1,2,3,8)            -63.3144         estimate D2E/DX2                !
 ! D9    D(1,2,3,14)           179.1086         estimate D2E/DX2                !
 ! D10   D(7,2,3,4)            172.2732         estimate D2E/DX2                !
 ! D11   D(7,2,3,8)             54.4431         estimate D2E/DX2                !
 ! D12   D(7,2,3,14)           -63.1339         estimate D2E/DX2                !
 ! D13   D(15,2,3,4)           -69.089          estimate D2E/DX2                !
 ! D14   D(15,2,3,8)           173.0809         estimate D2E/DX2                !
 ! D15   D(15,2,3,14)           55.5039         estimate D2E/DX2                !
 ! D16   D(1,2,15,27)           67.0535         estimate D2E/DX2                !
 ! D17   D(3,2,15,27)         -169.6441         estimate D2E/DX2                !
 ! D18   D(7,2,15,27)          -50.4619         estimate D2E/DX2                !
 ! D19   D(2,3,4,5)            -53.1682         estimate D2E/DX2                !
 ! D20   D(2,3,4,9)             68.5163         estimate D2E/DX2                !
 ! D21   D(2,3,4,13)          -174.7127         estimate D2E/DX2                !
 ! D22   D(8,3,4,5)             64.0116         estimate D2E/DX2                !
 ! D23   D(8,3,4,9)           -174.3038         estimate D2E/DX2                !
 ! D24   D(8,3,4,13)           -57.5329         estimate D2E/DX2                !
 ! D25   D(14,3,4,5)          -176.9724         estimate D2E/DX2                !
 ! D26   D(14,3,4,9)           -55.2878         estimate D2E/DX2                !
 ! D27   D(14,3,4,13)           61.4831         estimate D2E/DX2                !
 ! D28   D(2,3,14,23)          -22.471          estimate D2E/DX2                !
 ! D29   D(2,3,14,83)         -144.258          estimate D2E/DX2                !
 ! D30   D(4,3,14,23)          100.6821         estimate D2E/DX2                !
 ! D31   D(4,3,14,83)          -21.1049         estimate D2E/DX2                !
 ! D32   D(8,3,14,23)         -139.866          estimate D2E/DX2                !
 ! D33   D(8,3,14,83)           98.3469         estimate D2E/DX2                !
 ! D34   D(3,4,5,6)             53.1476         estimate D2E/DX2                !
 ! D35   D(3,4,5,10)           170.3388         estimate D2E/DX2                !
 ! D36   D(3,4,5,12)           -71.8534         estimate D2E/DX2                !
 ! D37   D(9,4,5,6)            -68.0377         estimate D2E/DX2                !
 ! D38   D(9,4,5,10)            49.1535         estimate D2E/DX2                !
 ! D39   D(9,4,5,12)           166.9613         estimate D2E/DX2                !
 ! D40   D(13,4,5,6)           176.3861         estimate D2E/DX2                !
 ! D41   D(13,4,5,10)          -66.4228         estimate D2E/DX2                !
 ! D42   D(13,4,5,12)           51.3851         estimate D2E/DX2                !
 ! D43   D(3,4,13,22)           80.5579         estimate D2E/DX2                !
 ! D44   D(3,4,13,83)          -74.4704         estimate D2E/DX2                !
 ! D45   D(5,4,13,22)          -41.8585         estimate D2E/DX2                !
 ! D46   D(5,4,13,83)          163.1132         estimate D2E/DX2                !
 ! D47   D(9,4,13,22)         -160.3937         estimate D2E/DX2                !
 ! D48   D(9,4,13,83)           44.578          estimate D2E/DX2                !
 ! D49   D(4,5,6,1)            -53.5292         estimate D2E/DX2                !
 ! D50   D(4,5,6,11)            66.7342         estimate D2E/DX2                !
 ! D51   D(4,5,6,16)          -176.2332         estimate D2E/DX2                !
 ! D52   D(10,5,6,1)          -171.5333         estimate D2E/DX2                !
 ! D53   D(10,5,6,11)          -51.2699         estimate D2E/DX2                !
 ! D54   D(10,5,6,16)           65.7627         estimate D2E/DX2                !
 ! D55   D(12,5,6,1)            65.2993         estimate D2E/DX2                !
 ! D56   D(12,5,6,11)         -174.4373         estimate D2E/DX2                !
 ! D57   D(12,5,6,16)          -57.4046         estimate D2E/DX2                !
 ! D58   D(4,5,12,21)          154.5294         estimate D2E/DX2                !
 ! D59   D(6,5,12,21)           33.0218         estimate D2E/DX2                !
 ! D60   D(10,5,12,21)         -88.6634         estimate D2E/DX2                !
 ! D61   D(1,6,16,17)           50.2626         estimate D2E/DX2                !
 ! D62   D(1,6,16,18)          168.1463         estimate D2E/DX2                !
 ! D63   D(1,6,16,19)          -70.6983         estimate D2E/DX2                !
 ! D64   D(5,6,16,17)          175.512          estimate D2E/DX2                !
 ! D65   D(5,6,16,18)          -66.6042         estimate D2E/DX2                !
 ! D66   D(5,6,16,19)           54.5511         estimate D2E/DX2                !
 ! D67   D(11,6,16,17)         -67.2502         estimate D2E/DX2                !
 ! D68   D(11,6,16,18)          50.6336         estimate D2E/DX2                !
 ! D69   D(11,6,16,19)         171.7889         estimate D2E/DX2                !
 ! D70   D(4,13,83,14)          40.3966         estimate D2E/DX2                !
 ! D71   D(4,13,83,19)           5.4247         estimate D2E/DX2                !
 ! D72   D(4,13,83,81)          36.2523         estimate D2E/DX2                !
 ! D73   D(22,13,83,14)       -102.6697         estimate D2E/DX2                !
 ! D74   D(22,13,83,19)       -137.6415         estimate D2E/DX2                !
 ! D75   D(22,13,83,81)       -106.814          estimate D2E/DX2                !
 ! D76   D(3,14,83,13)         -10.7676         estimate D2E/DX2                !
 ! D77   D(3,14,83,19)           0.6713         estimate D2E/DX2                !
 ! D78   D(3,14,83,81)         167.839          estimate D2E/DX2                !
 ! D79   D(23,14,83,13)       -121.6896         estimate D2E/DX2                !
 ! D80   D(23,14,83,19)       -110.2507         estimate D2E/DX2                !
 ! D81   D(23,14,83,81)         56.917          estimate D2E/DX2                !
 ! D82   D(2,15,27,26)        -139.8912         estimate D2E/DX2                !
 ! D83   D(2,15,27,28)          98.9796         estimate D2E/DX2                !
 ! D84   D(2,15,27,32)         -23.0644         estimate D2E/DX2                !
 ! D85   D(6,16,19,20)         179.9319         estimate D2E/DX2                !
 ! D86   D(6,16,19,83)         -19.7721         estimate D2E/DX2                !
 ! D87   D(17,16,19,20)         60.2823         estimate D2E/DX2                !
 ! D88   D(17,16,19,83)       -139.4217         estimate D2E/DX2                !
 ! D89   D(18,16,19,20)        -60.5233         estimate D2E/DX2                !
 ! D90   D(18,16,19,83)         99.7727         estimate D2E/DX2                !
 ! D91   D(16,19,83,13)       -136.7865         estimate D2E/DX2                !
 ! D92   D(16,19,83,14)         82.2629         estimate D2E/DX2                !
 ! D93   D(16,19,83,81)         60.182          estimate D2E/DX2                !
 ! D94   D(20,19,83,13)        -42.9055         estimate D2E/DX2                !
 ! D95   D(20,19,83,14)        176.1439         estimate D2E/DX2                !
 ! D96   D(20,19,83,81)        154.063          estimate D2E/DX2                !
 ! D97   D(29,24,25,26)        -55.8025         estimate D2E/DX2                !
 ! D98   D(29,24,25,30)         63.4261         estimate D2E/DX2                !
 ! D99   D(29,24,25,37)        176.4982         estimate D2E/DX2                !
 ! D100  D(25,24,29,28)         55.0919         estimate D2E/DX2                !
 ! D101  D(25,24,29,34)        -64.2038         estimate D2E/DX2                !
 ! D102  D(25,24,29,38)       -177.9096         estimate D2E/DX2                !
 ! D103  D(24,25,26,27)          0.6786         estimate D2E/DX2                !
 ! D104  D(24,25,26,31)       -119.3747         estimate D2E/DX2                !
 ! D105  D(24,25,26,36)        118.9515         estimate D2E/DX2                !
 ! D106  D(30,25,26,27)       -119.507          estimate D2E/DX2                !
 ! D107  D(30,25,26,31)        120.4396         estimate D2E/DX2                !
 ! D108  D(30,25,26,36)         -1.2341         estimate D2E/DX2                !
 ! D109  D(37,25,26,27)        124.3439         estimate D2E/DX2                !
 ! D110  D(37,25,26,31)          4.2906         estimate D2E/DX2                !
 ! D111  D(37,25,26,36)       -117.3832         estimate D2E/DX2                !
 ! D112  D(24,25,37,49)         63.4952         estimate D2E/DX2                !
 ! D113  D(26,25,37,49)        -62.2217         estimate D2E/DX2                !
 ! D114  D(30,25,37,49)        179.7944         estimate D2E/DX2                !
 ! D115  D(25,26,27,15)        -71.2799         estimate D2E/DX2                !
 ! D116  D(25,26,27,28)         51.3892         estimate D2E/DX2                !
 ! D117  D(25,26,27,32)        170.6527         estimate D2E/DX2                !
 ! D118  D(31,26,27,15)         48.717          estimate D2E/DX2                !
 ! D119  D(31,26,27,28)        171.3861         estimate D2E/DX2                !
 ! D120  D(31,26,27,32)        -69.3504         estimate D2E/DX2                !
 ! D121  D(36,26,27,15)        168.0424         estimate D2E/DX2                !
 ! D122  D(36,26,27,28)        -69.2885         estimate D2E/DX2                !
 ! D123  D(36,26,27,32)         49.9751         estimate D2E/DX2                !
 ! D124  D(25,26,36,44)         81.0015         estimate D2E/DX2                !
 ! D125  D(27,26,36,44)       -157.3917         estimate D2E/DX2                !
 ! D126  D(31,26,36,44)        -39.4036         estimate D2E/DX2                !
 ! D127  D(15,27,28,29)         68.1118         estimate D2E/DX2                !
 ! D128  D(15,27,28,33)       -175.8122         estimate D2E/DX2                !
 ! D129  D(15,27,28,35)        -56.0267         estimate D2E/DX2                !
 ! D130  D(26,27,28,29)        -52.0519         estimate D2E/DX2                !
 ! D131  D(26,27,28,33)         64.024          estimate D2E/DX2                !
 ! D132  D(26,27,28,35)       -176.1905         estimate D2E/DX2                !
 ! D133  D(32,27,28,29)       -169.9791         estimate D2E/DX2                !
 ! D134  D(32,27,28,33)        -53.9031         estimate D2E/DX2                !
 ! D135  D(32,27,28,35)         65.8824         estimate D2E/DX2                !
 ! D136  D(27,28,29,24)          1.1663         estimate D2E/DX2                !
 ! D137  D(27,28,29,34)        121.0083         estimate D2E/DX2                !
 ! D138  D(27,28,29,38)       -120.5894         estimate D2E/DX2                !
 ! D139  D(33,28,29,24)       -114.0735         estimate D2E/DX2                !
 ! D140  D(33,28,29,34)          5.7686         estimate D2E/DX2                !
 ! D141  D(33,28,29,38)        124.1709         estimate D2E/DX2                !
 ! D142  D(35,28,29,24)        126.2626         estimate D2E/DX2                !
 ! D143  D(35,28,29,34)       -113.8954         estimate D2E/DX2                !
 ! D144  D(35,28,29,38)          4.507          estimate D2E/DX2                !
 ! D145  D(27,28,35,43)        -93.5455         estimate D2E/DX2                !
 ! D146  D(27,28,35,82)         64.3388         estimate D2E/DX2                !
 ! D147  D(29,28,35,43)        142.0651         estimate D2E/DX2                !
 ! D148  D(29,28,35,82)        -60.0506         estimate D2E/DX2                !
 ! D149  D(33,28,35,43)         23.9447         estimate D2E/DX2                !
 ! D150  D(33,28,35,82)       -178.1709         estimate D2E/DX2                !
 ! D151  D(24,29,38,39)         66.9161         estimate D2E/DX2                !
 ! D152  D(24,29,38,40)       -173.3938         estimate D2E/DX2                !
 ! D153  D(24,29,38,41)        -52.3792         estimate D2E/DX2                !
 ! D154  D(28,29,38,39)       -167.6531         estimate D2E/DX2                !
 ! D155  D(28,29,38,40)        -47.963          estimate D2E/DX2                !
 ! D156  D(28,29,38,41)         73.0516         estimate D2E/DX2                !
 ! D157  D(34,29,38,39)        -48.4425         estimate D2E/DX2                !
 ! D158  D(34,29,38,40)         71.2475         estimate D2E/DX2                !
 ! D159  D(34,29,38,41)       -167.7378         estimate D2E/DX2                !
 ! D160  D(28,35,82,41)         69.2099         estimate D2E/DX2                !
 ! D161  D(28,35,82,62)         25.7371         estimate D2E/DX2                !
 ! D162  D(28,35,82,81)        -10.9646         estimate D2E/DX2                !
 ! D163  D(43,35,82,41)       -155.1401         estimate D2E/DX2                !
 ! D164  D(43,35,82,62)        161.3871         estimate D2E/DX2                !
 ! D165  D(43,35,82,81)        124.6854         estimate D2E/DX2                !
 ! D166  D(25,37,49,48)        122.1938         estimate D2E/DX2                !
 ! D167  D(25,37,49,50)       -119.8567         estimate D2E/DX2                !
 ! D168  D(25,37,49,55)          0.3243         estimate D2E/DX2                !
 ! D169  D(29,38,41,42)       -162.0428         estimate D2E/DX2                !
 ! D170  D(39,38,41,42)         79.0424         estimate D2E/DX2                !
 ! D171  D(40,38,41,42)        -41.7732         estimate D2E/DX2                !
 ! D172  D(29,38,82,35)        -63.1473         estimate D2E/DX2                !
 ! D173  D(29,38,82,62)         63.1878         estimate D2E/DX2                !
 ! D174  D(29,38,82,81)         51.4422         estimate D2E/DX2                !
 ! D175  D(39,38,82,35)       -178.2481         estimate D2E/DX2                !
 ! D176  D(39,38,82,62)        -51.913          estimate D2E/DX2                !
 ! D177  D(39,38,82,81)        -63.6586         estimate D2E/DX2                !
 ! D178  D(40,38,82,35)         60.4055         estimate D2E/DX2                !
 ! D179  D(40,38,82,62)       -173.2595         estimate D2E/DX2                !
 ! D180  D(40,38,82,81)        174.9949         estimate D2E/DX2                !
 ! D181  D(42,41,82,35)        102.9965         estimate D2E/DX2                !
 ! D182  D(42,41,82,62)       -134.1912         estimate D2E/DX2                !
 ! D183  D(42,41,82,81)       -146.7602         estimate D2E/DX2                !
 ! D184  D(50,45,46,47)        -64.6483         estimate D2E/DX2                !
 ! D185  D(50,45,46,51)         56.6683         estimate D2E/DX2                !
 ! D186  D(50,45,46,58)        178.7781         estimate D2E/DX2                !
 ! D187  D(84,45,46,47)         78.3369         estimate D2E/DX2                !
 ! D188  D(84,45,46,51)       -160.3466         estimate D2E/DX2                !
 ! D189  D(84,45,46,58)        -38.2367         estimate D2E/DX2                !
 ! D190  D(46,45,50,49)         66.788          estimate D2E/DX2                !
 ! D191  D(46,45,50,54)        -51.3633         estimate D2E/DX2                !
 ! D192  D(46,45,50,59)       -166.4184         estimate D2E/DX2                !
 ! D193  D(84,45,50,49)        -93.6793         estimate D2E/DX2                !
 ! D194  D(84,45,50,54)        148.1694         estimate D2E/DX2                !
 ! D195  D(84,45,50,59)         33.1143         estimate D2E/DX2                !
 ! D196  D(46,45,84,56)        -79.4752         estimate D2E/DX2                !
 ! D197  D(46,45,84,58)         23.1396         estimate D2E/DX2                !
 ! D198  D(46,45,84,81)         24.1486         estimate D2E/DX2                !
 ! D199  D(50,45,84,56)         66.3454         estimate D2E/DX2                !
 ! D200  D(50,45,84,58)        168.9602         estimate D2E/DX2                !
 ! D201  D(50,45,84,81)        169.9692         estimate D2E/DX2                !
 ! D202  D(45,46,47,48)         54.9471         estimate D2E/DX2                !
 ! D203  D(45,46,47,52)        -64.0602         estimate D2E/DX2                !
 ! D204  D(45,46,47,57)        174.2929         estimate D2E/DX2                !
 ! D205  D(51,46,47,48)        -64.9195         estimate D2E/DX2                !
 ! D206  D(51,46,47,52)        176.0732         estimate D2E/DX2                !
 ! D207  D(51,46,47,57)         54.4263         estimate D2E/DX2                !
 ! D208  D(58,46,47,48)        172.4673         estimate D2E/DX2                !
 ! D209  D(58,46,47,52)         53.4599         estimate D2E/DX2                !
 ! D210  D(58,46,47,57)        -68.187          estimate D2E/DX2                !
 ! D211  D(45,46,58,66)        -71.0738         estimate D2E/DX2                !
 ! D212  D(45,46,58,84)         13.6844         estimate D2E/DX2                !
 ! D213  D(47,46,58,66)        171.5778         estimate D2E/DX2                !
 ! D214  D(47,46,58,84)       -103.6639         estimate D2E/DX2                !
 ! D215  D(51,46,58,66)         49.2857         estimate D2E/DX2                !
 ! D216  D(51,46,58,84)        134.044          estimate D2E/DX2                !
 ! D217  D(46,47,48,49)        -49.9            estimate D2E/DX2                !
 ! D218  D(46,47,48,53)         68.5798         estimate D2E/DX2                !
 ! D219  D(46,47,48,56)       -172.3145         estimate D2E/DX2                !
 ! D220  D(52,47,48,49)         67.4418         estimate D2E/DX2                !
 ! D221  D(52,47,48,53)       -174.0784         estimate D2E/DX2                !
 ! D222  D(52,47,48,56)        -54.9727         estimate D2E/DX2                !
 ! D223  D(57,47,48,49)       -173.1408         estimate D2E/DX2                !
 ! D224  D(57,47,48,53)        -54.661          estimate D2E/DX2                !
 ! D225  D(57,47,48,56)         64.4447         estimate D2E/DX2                !
 ! D226  D(46,47,57,65)         59.8387         estimate D2E/DX2                !
 ! D227  D(48,47,57,65)       -177.7461         estimate D2E/DX2                !
 ! D228  D(52,47,57,65)        -59.3385         estimate D2E/DX2                !
 ! D229  D(47,48,49,37)        167.7209         estimate D2E/DX2                !
 ! D230  D(47,48,49,50)         49.7626         estimate D2E/DX2                !
 ! D231  D(47,48,49,55)        -70.8215         estimate D2E/DX2                !
 ! D232  D(53,48,49,37)         48.7006         estimate D2E/DX2                !
 ! D233  D(53,48,49,50)        -69.2576         estimate D2E/DX2                !
 ! D234  D(53,48,49,55)        170.1582         estimate D2E/DX2                !
 ! D235  D(56,48,49,37)        -70.1489         estimate D2E/DX2                !
 ! D236  D(56,48,49,50)        171.8928         estimate D2E/DX2                !
 ! D237  D(56,48,49,55)         51.3086         estimate D2E/DX2                !
 ! D238  D(47,48,56,64)        -56.3892         estimate D2E/DX2                !
 ! D239  D(47,48,56,84)         78.8096         estimate D2E/DX2                !
 ! D240  D(49,48,56,64)        179.7997         estimate D2E/DX2                !
 ! D241  D(49,48,56,84)        -45.0015         estimate D2E/DX2                !
 ! D242  D(53,48,56,64)         62.1158         estimate D2E/DX2                !
 ! D243  D(53,48,56,84)       -162.6854         estimate D2E/DX2                !
 ! D244  D(37,49,50,45)       -175.1555         estimate D2E/DX2                !
 ! D245  D(37,49,50,54)        -55.5277         estimate D2E/DX2                !
 ! D246  D(37,49,50,59)         63.5208         estimate D2E/DX2                !
 ! D247  D(48,49,50,45)        -57.0736         estimate D2E/DX2                !
 ! D248  D(48,49,50,54)         62.5542         estimate D2E/DX2                !
 ! D249  D(48,49,50,59)       -178.3974         estimate D2E/DX2                !
 ! D250  D(55,49,50,45)         64.2942         estimate D2E/DX2                !
 ! D251  D(55,49,50,54)       -176.078          estimate D2E/DX2                !
 ! D252  D(55,49,50,59)        -57.0295         estimate D2E/DX2                !
 ! D253  D(45,50,59,60)         62.7807         estimate D2E/DX2                !
 ! D254  D(45,50,59,61)       -179.2181         estimate D2E/DX2                !
 ! D255  D(45,50,59,62)        -55.5678         estimate D2E/DX2                !
 ! D256  D(49,50,59,60)       -174.4921         estimate D2E/DX2                !
 ! D257  D(49,50,59,61)        -56.491          estimate D2E/DX2                !
 ! D258  D(49,50,59,62)         67.1593         estimate D2E/DX2                !
 ! D259  D(54,50,59,60)        -54.7337         estimate D2E/DX2                !
 ! D260  D(54,50,59,61)         63.2675         estimate D2E/DX2                !
 ! D261  D(54,50,59,62)       -173.0822         estimate D2E/DX2                !
 ! D262  D(48,56,84,45)        -15.5067         estimate D2E/DX2                !
 ! D263  D(48,56,84,58)        -50.5918         estimate D2E/DX2                !
 ! D264  D(48,56,84,81)       -120.8397         estimate D2E/DX2                !
 ! D265  D(64,56,84,45)         53.9738         estimate D2E/DX2                !
 ! D266  D(64,56,84,58)         18.8888         estimate D2E/DX2                !
 ! D267  D(64,56,84,81)        -51.3592         estimate D2E/DX2                !
 ! D268  D(46,58,66,67)        -98.0393         estimate D2E/DX2                !
 ! D269  D(46,58,66,68)         19.9            estimate D2E/DX2                !
 ! D270  D(46,58,66,69)        141.5088         estimate D2E/DX2                !
 ! D271  D(84,58,66,67)       -168.3849         estimate D2E/DX2                !
 ! D272  D(84,58,66,68)        -50.4456         estimate D2E/DX2                !
 ! D273  D(84,58,66,69)         71.1632         estimate D2E/DX2                !
 ! D274  D(46,58,84,45)        -13.7916         estimate D2E/DX2                !
 ! D275  D(46,58,84,56)         39.1723         estimate D2E/DX2                !
 ! D276  D(46,58,84,81)        167.0481         estimate D2E/DX2                !
 ! D277  D(66,58,84,45)        101.4543         estimate D2E/DX2                !
 ! D278  D(66,58,84,56)        154.4182         estimate D2E/DX2                !
 ! D279  D(66,58,84,81)        -77.7059         estimate D2E/DX2                !
 ! D280  D(50,59,62,63)       -102.4028         estimate D2E/DX2                !
 ! D281  D(50,59,62,82)         57.6807         estimate D2E/DX2                !
 ! D282  D(60,59,62,63)        138.9294         estimate D2E/DX2                !
 ! D283  D(60,59,62,82)        -60.9871         estimate D2E/DX2                !
 ! D284  D(61,59,62,63)         20.7124         estimate D2E/DX2                !
 ! D285  D(61,59,62,82)       -179.2042         estimate D2E/DX2                !
 ! D286  D(59,62,82,35)       -146.4694         estimate D2E/DX2                !
 ! D287  D(59,62,82,41)       -170.0322         estimate D2E/DX2                !
 ! D288  D(59,62,82,81)         -3.2766         estimate D2E/DX2                !
 ! D289  D(63,62,82,35)         14.8552         estimate D2E/DX2                !
 ! D290  D(63,62,82,41)         -8.7076         estimate D2E/DX2                !
 ! D291  D(63,62,82,81)        158.048          estimate D2E/DX2                !
 ! D292  D(58,66,69,70)        178.8417         estimate D2E/DX2                !
 ! D293  D(58,66,69,71)         64.0618         estimate D2E/DX2                !
 ! D294  D(58,66,69,72)        -57.5257         estimate D2E/DX2                !
 ! D295  D(67,66,69,70)         59.6971         estimate D2E/DX2                !
 ! D296  D(67,66,69,71)        -55.0829         estimate D2E/DX2                !
 ! D297  D(67,66,69,72)       -176.6704         estimate D2E/DX2                !
 ! D298  D(68,66,69,70)        -60.8384         estimate D2E/DX2                !
 ! D299  D(68,66,69,71)       -175.6183         estimate D2E/DX2                !
 ! D300  D(68,66,69,72)         62.7942         estimate D2E/DX2                !
 ! D301  D(66,69,72,73)         57.5724         estimate D2E/DX2                !
 ! D302  D(66,69,72,74)        172.4772         estimate D2E/DX2                !
 ! D303  D(66,69,72,75)        -65.6302         estimate D2E/DX2                !
 ! D304  D(70,69,72,73)        179.6412         estimate D2E/DX2                !
 ! D305  D(70,69,72,74)        -65.454          estimate D2E/DX2                !
 ! D306  D(70,69,72,75)         56.4386         estimate D2E/DX2                !
 ! D307  D(71,69,72,73)        -63.9553         estimate D2E/DX2                !
 ! D308  D(71,69,72,74)         50.9495         estimate D2E/DX2                !
 ! D309  D(71,69,72,75)        172.8421         estimate D2E/DX2                !
 ! D310  D(69,72,75,76)        -61.0082         estimate D2E/DX2                !
 ! D311  D(69,72,75,77)         56.2512         estimate D2E/DX2                !
 ! D312  D(69,72,75,78)        178.7449         estimate D2E/DX2                !
 ! D313  D(73,72,75,76)        177.3683         estimate D2E/DX2                !
 ! D314  D(73,72,75,77)        -65.3723         estimate D2E/DX2                !
 ! D315  D(73,72,75,78)         57.1214         estimate D2E/DX2                !
 ! D316  D(74,72,75,76)         60.5564         estimate D2E/DX2                !
 ! D317  D(74,72,75,77)        177.8158         estimate D2E/DX2                !
 ! D318  D(74,72,75,78)        -59.6904         estimate D2E/DX2                !
 ! D319  D(72,75,78,79)        172.881          estimate D2E/DX2                !
 ! D320  D(72,75,78,80)         52.3126         estimate D2E/DX2                !
 ! D321  D(72,75,78,81)        -68.0556         estimate D2E/DX2                !
 ! D322  D(76,75,78,79)         51.1395         estimate D2E/DX2                !
 ! D323  D(76,75,78,80)        -69.4288         estimate D2E/DX2                !
 ! D324  D(76,75,78,81)        170.203          estimate D2E/DX2                !
 ! D325  D(77,75,78,79)        -63.501          estimate D2E/DX2                !
 ! D326  D(77,75,78,80)        175.9307         estimate D2E/DX2                !
 ! D327  D(77,75,78,81)         55.5625         estimate D2E/DX2                !
 ! D328  D(75,78,81,82)       -179.4016         estimate D2E/DX2                !
 ! D329  D(75,78,81,83)         62.6372         estimate D2E/DX2                !
 ! D330  D(75,78,81,84)        -60.8315         estimate D2E/DX2                !
 ! D331  D(79,78,81,82)        -58.0312         estimate D2E/DX2                !
 ! D332  D(79,78,81,83)       -175.9924         estimate D2E/DX2                !
 ! D333  D(79,78,81,84)         60.5388         estimate D2E/DX2                !
 ! D334  D(80,78,81,82)         57.9307         estimate D2E/DX2                !
 ! D335  D(80,78,81,83)        -60.0305         estimate D2E/DX2                !
 ! D336  D(80,78,81,84)        176.5008         estimate D2E/DX2                !
 ! D337  D(78,81,82,35)        155.0427         estimate D2E/DX2                !
 ! D338  D(78,81,82,41)        128.6539         estimate D2E/DX2                !
 ! D339  D(78,81,82,62)        118.4086         estimate D2E/DX2                !
 ! D340  D(83,81,82,35)        -81.3604         estimate D2E/DX2                !
 ! D341  D(83,81,82,41)       -107.7492         estimate D2E/DX2                !
 ! D342  D(83,81,82,62)       -117.9946         estimate D2E/DX2                !
 ! D343  D(84,81,82,35)         32.7606         estimate D2E/DX2                !
 ! D344  D(84,81,82,41)          6.3718         estimate D2E/DX2                !
 ! D345  D(84,81,82,62)         -3.8735         estimate D2E/DX2                !
 ! D346  D(78,81,83,13)        166.9744         estimate D2E/DX2                !
 ! D347  D(78,81,83,14)        162.9228         estimate D2E/DX2                !
 ! D348  D(78,81,83,19)       -177.5425         estimate D2E/DX2                !
 ! D349  D(82,81,83,13)         43.4083         estimate D2E/DX2                !
 ! D350  D(82,81,83,14)         39.3567         estimate D2E/DX2                !
 ! D351  D(82,81,83,19)         58.8914         estimate D2E/DX2                !
 ! D352  D(84,81,83,13)        -68.016          estimate D2E/DX2                !
 ! D353  D(84,81,83,14)        -72.0677         estimate D2E/DX2                !
 ! D354  D(84,81,83,19)        -52.5329         estimate D2E/DX2                !
 ! D355  D(78,81,84,45)         78.3475         estimate D2E/DX2                !
 ! D356  D(78,81,84,56)        128.1411         estimate D2E/DX2                !
 ! D357  D(78,81,84,58)         78.8263         estimate D2E/DX2                !
 ! D358  D(82,81,84,45)       -158.178          estimate D2E/DX2                !
 ! D359  D(82,81,84,56)       -108.3844         estimate D2E/DX2                !
 ! D360  D(82,81,84,58)       -157.6991         estimate D2E/DX2                !
 ! D361  D(83,81,84,45)        -47.7688         estimate D2E/DX2                !
 ! D362  D(83,81,84,56)          2.0249         estimate D2E/DX2                !
 ! D363  D(83,81,84,58)        -47.2899         estimate D2E/DX2                !
 --------------------------------------------------------------------------------
 Trust Radius=3.00D-01 FncErr=1.00D-07 GrdErr=1.00D-06
 Number of steps in this run=    504 maximum allowed number of steps=    504.
 GradGradGradGradGradGradGradGradGradGradGradGradGradGradGradGradGradGrad

 Leave Link  103 at Sat Apr 30 04:00:23 2016, MaxMem= 10737418240 cpu:         0.7
 (Enter /share/apps//g09/l202.exe)
 Stoichiometry    C23H44NO16(1+)
 Framework group  C1[X(C23H44NO16)]
 Deg. of freedom   246
 Full point group                 C1      NOp   1
 Largest Abelian subgroup         C1      NOp   1
 Largest concise Abelian subgroup C1      NOp   1
                         Standard orientation:                         
 ---------------------------------------------------------------------
 Center     Atomic      Atomic             Coordinates (Angstroms)
 Number     Number       Type             X           Y           Z
 ---------------------------------------------------------------------
      1          8           0       -2.366648    2.482826   -0.962683
      2          6           0       -2.168332    1.193228   -1.492134
      3          6           0       -0.853723    1.068779   -2.279481
      4          6           0        0.325352    1.514364   -1.396209
      5          6           0        0.066374    2.910958   -0.821074
      6          6           0       -1.295905    2.944057   -0.111353
      7          1           0       -3.034564    1.011599   -2.145733
      8          1           0       -0.919966    1.748125   -3.143155
      9          1           0        0.470001    0.787705   -0.583889
     10          1           0        0.841710    3.128949   -0.057518
     11          1           0       -1.208172    2.283860    0.771866
     12          8           0        0.204526    3.801831   -1.928371
     13          8           0        1.566394    1.532323   -2.127837
     14          8           0       -0.683079   -0.260052   -2.781043
     15          8           0       -2.090022    0.174138   -0.486022
     16          6           0       -1.691315    4.313310    0.418804
     17          1           0       -2.710555    4.246376    0.833856
     18          1           0       -0.993830    4.584515    1.230937
     19          8           0       -1.639914    5.279119   -0.645898
     20          1           0       -1.894450    6.150413   -0.300763
     21          1           0       -0.330682    4.601865   -1.729922
     22          1           0        1.570262    2.372616   -2.631948
     23          1           0       -1.230067   -0.858835   -2.224462
     24          8           0       -2.059017   -2.384582    0.711446
     25          6           0       -2.222757   -1.663561    1.939264
     26          6           0       -2.940991   -0.292714    1.716898
     27          6           0       -3.305724   -0.070022    0.241860
     28          6           0       -4.067836   -1.289670   -0.293246
     29          6           0       -3.283165   -2.610630   -0.003279
     30          1           0       -2.843073   -2.260006    2.634895
     31          1           0       -2.267728    0.512476    2.039104
     32          1           0       -3.949697    0.822016    0.190318
     33          1           0       -5.007311   -1.334659    0.280924
     34          1           0       -3.936325   -3.262356    0.610540
     35          8           0       -4.358997   -1.175220   -1.693634
     36          8           0       -4.173154   -0.248485    2.448625
     37          8           0       -0.967562   -1.586986    2.565453
     38          6           0       -2.903273   -3.423592   -1.228343
     39          1           0       -2.562402   -4.418746   -0.899795
     40          1           0       -3.781458   -3.528644   -1.878890
     41          8           0       -1.828790   -2.758820   -1.933369
     42          1           0       -1.797807   -3.121479   -2.834360
     43          1           0       -5.246022   -0.789937   -1.784803
     44          1           0       -3.970675   -0.025462    3.372890
     45          8           0        2.342633   -1.096688    1.019458
     46          6           0        2.914883   -0.158665    1.949083
     47          6           0        1.866348    0.900789    2.278506
     48          6           0        0.571432    0.268230    2.791210
     49          6           0        0.072889   -0.858686    1.878409
     50          6           0        1.249450   -1.824423    1.600866
     51          1           0        3.235956   -0.706217    2.862446
     52          1           0        1.659300    1.439912    1.335268
     53          1           0        0.770365   -0.174837    3.786486
     54          1           0        1.559484   -2.264572    2.571866
     55          1           0       -0.307869   -0.455585    0.927646
     56          8           0       -0.437274    1.279490    2.915568
     57          8           0        2.294763    1.806444    3.294637
     58          8           0        3.979437    0.488576    1.335156
     59          6           0        0.954616   -2.996652    0.674230
     60          1           0        1.847234   -3.640225    0.654256
     61          1           0        0.112439   -3.575117    1.074649
     62          8           0        0.689569   -2.599276   -0.677552
     63          1           0       -0.278119   -2.625180   -0.859826
     64          1           0       -0.061203    1.958452    3.505778
     65          1           0        3.100967    2.248576    2.972737
     66          6           0        5.155849   -0.334135    1.122067
     67          1           0        5.873070   -0.139130    1.936191
     68          1           0        4.867714   -1.395606    1.161585
     69          6           0        5.763993    0.025006   -0.228609
     70          1           0        6.667495   -0.592199   -0.367234
     71          1           0        6.106902    1.070622   -0.192396
     72          6           0        4.805910   -0.138446   -1.418723
     73          1           0        3.923235    0.491151   -1.225682
     74          1           0        5.293430    0.271994   -2.318288
     75          6           0        4.383504   -1.588351   -1.694844
     76          1           0        5.271077   -2.196792   -1.932533
     77          1           0        3.927865   -2.034942   -0.796959
     78          6           0        3.408055   -1.743466   -2.858865
     79          1           0        3.240395   -2.803798   -3.090181
     80          1           0        3.781638   -1.250125   -3.767855
     81          7           0        2.069626   -1.149191   -2.537760
     82          1           0        1.384490   -1.245689   -3.299108
     83          1           0        2.100840   -0.115600   -2.364256
[...]
 0000566,0.00021616,-0.00005016,0.00012295,0.00005004,0.00009129,0.0000
 0087,0.00002739,0.00007972,0.00004851,-0.00002842,0.00008686,-0.000096
 46,-0.00004095,-0.00006613,0.00002851,-0.00003784,-0.00001914,-0.00003
 152,-0.00002178,0.00000027,-0.00001467,0.00002591,-0.00004855,0.000026
 54,0.00005218,0.00007947,-0.00012491,-0.00012476,-0.00006492,-0.000104
 45,-0.00012439,-0.00004230,-0.00045352,-0.00027349,0.00030733,0.000081
 66,-0.00062400,0.00055192,-0.00001479,0.00004567,-0.00003472,0.0000071
 8,0.00011289,-0.00006935,0.00074072,0.00055073,-0.00014438,-0.00027949
 ,0.00012019,0.00007983,0.00003818,0.00002990,-0.00003048,0.00001369,0.
 00006493,-0.00003743,0.00025193,0.00011456,-0.00005325,-0.00005939,-0.
 00005405,0.00006056,-0.00006264,-0.00008872,0.00001140,-0.00020209,-0.
 00049719,-0.00105848,0.00026474,-0.00035643,0.00020061,-0.00008956,0.0
 0008742,-0.00005414,0.00006886,0.00090318,0.00206825,-0.00117043,0.000
 55601,-0.00210933,-0.00023578,0.00003382,0.00011740,0.00099249,-0.0000
 7885,0.00042302,-0.00038854,-0.00015317,-0.00036912,-0.00017562,-0.000
 09795,-0.00006963,0.02091112,0.00879807,0.01225933,-0.00289712,0.00355
 326,0.00417807,0.00023370,-0.00021136,0.00036967,-0.17826220,-0.086082
 75,-0.11155734,-0.01475621,-0.00993450,-0.01253572,0.19127268,-0.00056
 020,-0.00014976,0.00001306,0.00046680,0.00083364,-0.00099934,0.0008045
 8,-0.00008960,0.00119625,0.00783271,0.00153822,-0.00576245,-0.00179215
 ,0.00031937,0.00080347,0.00114797,0.00046241,0.00032086,-0.00021292,-0
 .00002278,0.00024613,0.00008934,-0.00029128,0.00001548,-0.00073962,-0.
 00018888,0.00065527,0.00009178,-0.00012490,-0.00007169,-0.00002141,0.0
 0006236,-0.00001312,-0.00014074,0.00066378,0.00098704,-0.00104685,0.00
 175021,0.00432261,-0.00171907,-0.00189719,-0.00129525,-0.00100564,-0.0
 0070994,0.00053253,-0.00042842,0.00002869,-0.00002724,-0.00000583,0.00
 012746,0.00017885,0.00003705,-0.00002683,-0.00002123,-0.00004834,0.000
 18419,0.00034405,-0.00005175,-0.00008815,-0.00001859,-0.00013571,-0.00
 049427,-0.00029134,-0.00153023,-0.00206213,0.00219847,0.00028462,0.000
 90160,0.00039273,0.00008272,-0.00029726,-0.00021410,-0.00015059,0.0003
 7599,0.00017937,-0.00001769,0.00010961,-0.00002636,0.00059443,0.000026
 77,-0.00031061,0.00002082,0.00012223,0.00007490,-0.00003105,0.00022172
 ,0.00001992,0.00000927,-0.00003132,-0.00002307,-0.00001521,0.00005590,
 -0.00003275,-0.00000958,-0.00001196,0.00000955,-0.00005285,-0.00002154
 ,-0.00002390,0.00000472,-0.00003037,-0.00001681,-0.00020289,-0.0002016
 4,-0.00006827,-0.00008126,-0.00018339,0.00005586,0.00030629,-0.0003662
 9,-0.00023242,-0.00014903,-0.00005404,0.00010525,-0.00003298,-0.000025
 10,-0.00002266,0.00004826,0.00001734,0.00000873,0.00015994,-0.00041322
 ,-0.00026711,-0.00017546,0.00020008,0.00012722,0.00008939,0.00001238,0
 .00002347,0.00000857,0.00004676,0.00001800,0.00020964,0.00026281,-0.00
 113755,0.00026719,-0.00008753,0.00101015,0.00007604,0.00048645,-0.0000
 4060,-0.00000900,0.00023634,0.00028415,-0.00022314,0.00029065,0.000117
 20,-0.00072416,0.00006026,0.00029791,-0.00002356,0.00003151,-0.0001776
 1,-0.00004123,-0.00000821,0.00003757,-0.00001788,-0.00007715,0.0000177
 3,0.00008002,0.00003500,-0.00013832,0.00008207,0.00012649,0.00006655,-
 0.00000807,-0.00049700,-0.00025858,-0.00000276,-0.00037836,-0.00023489
 ,0.00014819,-0.00006777,-0.00074896,0.00014344,-0.00066224,0.00037620,
 -0.00005370,-0.00001617,-0.00006385,0.00004271,0.00015078,-0.00003795,
 0.00107567,0.00060269,-0.00060386,-0.00038699,0.00057265,0.00029837,0.
 00001279,0.00009895,-0.00001722,-0.00000361,0.00020750,0.00011675,-0.0
 0011752,0.00004602,0.00040092,-0.00001370,0.00001894,-0.00013678,-0.00
 000965,-0.00014817,0.00003836,-0.00015861,-0.00008309,0.00055146,-0.00
 007776,0.00018087,-0.00012564,-0.00018202,0.00011101,-0.00014948,0.000
 53828,-0.00022503,-0.00089476,0.00103330,0.00136701,0.00149611,-0.0003
 4207,0.00014149,0.00032222,-0.00050004,-0.00098792,0.00004326,-0.00033
 368,0.00042188,0.00007847,0.00003125,-0.00041017,-0.00001418,-0.005848
 73,-0.00886039,-0.01019572,0.00104948,0.00012425,-0.00060330,-0.000331
 81,0.00094992,0.00110557,-0.09080748,-0.12637774,-0.08829332,0.0183933
 9,0.01582751,0.01909410,0.08780178,0.12577493,-0.00061158,-0.00007153,
 -0.00023641,0.00028226,0.00069856,-0.00070571,0.00123424,0.00030179,0.
 00231046,0.00608152,-0.00153715,-0.00650043,-0.00102109,0.00033253,-0.
 00008359,0.00106057,0.00016194,0.00020729,-0.00022384,0.00001388,0.000
 24676,-0.00002292,-0.00012284,-0.00005250,0.00004923,0.00002462,-0.000
 48937,0.00000651,-0.00008420,-0.00007821,-0.00000332,0.00007058,-0.000
 03426,-0.00004415,0.00118983,0.00124687,0.00254178,0.00554392,-0.00579
 356,-0.00063552,-0.00146965,-0.00236093,-0.00090877,-0.00053008,0.0002
 7131,-0.00034294,0.00000154,-0.00005854,-0.00001122,0.00011130,0.00015
 236,0.00001810,-0.00002076,-0.00003821,-0.00005222,0.00023628,0.000349
 52,-0.00004584,-0.00009682,-0.00001026,-0.00009043,-0.00048830,-0.0003
 1014,-0.00248825,-0.00043594,0.00500488,0.00022821,0.00032842,0.000131
 97,-0.00002361,-0.00017075,-0.00041995,0.00014495,0.00011608,0.0003584
 5,0.00001802,0.00008985,-0.00004847,0.00050563,0.00003738,-0.00024892,
 0.00003367,0.00007223,0.00011903,0.00003010,0.00014987,0.00004789,-0.0
 0001940,-0.00000924,-0.00003968,0.00000638,0.00002480,-0.00003869,-0.0
 0000962,-0.00000499,0.00000467,-0.00004491,-0.00001855,-0.00002609,-0.
 00000267,-0.00002360,-0.00002135,-0.00019238,-0.00013081,-0.00012485,-
 0.00011192,-0.00013789,0.00005026,-0.00017127,-0.00025575,-0.00011421,
 -0.00026213,-0.00008131,0.00020362,-0.00000784,-0.00001168,-0.00002849
 ,0.00006227,0.00002049,-0.00000629,0.00035945,-0.00031749,-0.00031948,
 -0.00017903,0.00015493,0.00011077,0.00008665,0.00001004,0.00002576,0.0
 0002498,0.00003721,0.00000912,-0.00048253,-0.00047232,-0.00051488,0.00
 007737,0.00030050,0.00031189,0.00001449,0.00066848,-0.00029378,0.00014
 272,0.00008065,0.00008867,-0.00003245,0.00038068,-0.00001216,0.0003891
 5,0.00026568,0.00015363,0.00000614,-0.00009469,-0.00003809,-0.00005037
 ,-0.00017077,-0.00004195,-0.00004518,-0.00007043,0.00004543,-0.0001231
 2,-0.00006220,-0.00006601,0.00014534,0.00003398,0.00007374,-0.00013934
 ,-0.00031982,-0.00007966,0.00008141,-0.00038429,0.00008714,0.00026061,
 -0.00049695,-0.00043539,0.00078256,-0.00118491,0.00064301,-0.00007552,
 0.00001922,-0.00003954,-0.00000802,0.00036913,-0.00021171,0.00250948,0
 .00201082,-0.00307207,-0.00020618,0.00071021,0.00014333,0.00003370,0.0
 0006886,-0.00007434,-0.00006124,0.00016905,0.00002217,-0.00027205,0.00
 042856,0.00048749,0.00002877,-0.00003786,-0.00011760,-0.00003529,-0.00
 013462,0.00000162,0.00010397,-0.00023539,-0.00023742,0.00009212,-0.000
 06548,-0.00000995,-0.00014910,0.00009246,-0.00009863,0.00010002,0.0006
 2815,0.00079856,-0.00088194,0.00066348,0.00050170,0.00023267,-0.000117
 46,-0.00025320,0.00010696,0.00018627,0.00156336,-0.00051421,0.00041457
 ,-0.00034077,0.00000646,-0.00002555,0.00006099,-0.00873861,-0.01159915
 ,-0.01500301,0.00195517,-0.00056252,-0.00078968,-0.00064937,0.00075841
 ,0.00002048,-0.11078039,-0.08263509,-0.17082853,-0.01270628,-0.0061632
 4,-0.00969727,0.11491532,0.08659522,0.18338715,-0.00051395,-0.00022626
 ,-0.00008870,0.00076743,0.00091107,-0.00034709,0.00021266,-0.00009729,
 0.00035509,0.00157074,-0.00025312,-0.00151169,-0.00015063,0.00013647,-
 0.00010218,0.00044067,0.00007557,0.00002344,-0.00005937,-0.00004706,0.
 00007858,-0.00006828,-0.00012873,-0.00009956,0.00030770,0.00004873,-0.
 00002349,0.00000235,-0.00002309,-0.00002701,0.00000706,0.00004230,0.00
 001281,-0.00017569,0.00017760,0.00039012,-0.00003406,0.00144096,0.0018
 7660,-0.00171010,-0.00109603,0.00042028,-0.00071024,-0.00083414,0.0002
 1262,-0.00002401,0.00011092,-0.00000377,-0.00001339,0.00003809,0.00006
 371,0.00000347,-0.00001353,-0.00001306,-0.00012355,-0.00006376,0.00010
 343,0.00001239,-0.00001113,0.00000133,0.00004733,-0.00010896,-0.000124
 77,-0.00026698,-0.00016400,0.00011007,0.00036124,0.00169539,0.00042509
 ,0.00064480,-0.00054199,-0.00127401,0.00013814,0.00008216,0.00116817,-
 0.00012130,0.00018366,0.00014022,0.00033494,0.00001874,-0.00009242,0.0
 0001932,0.00032907,0.00007435,-0.00053191,0.00057168,-0.00012863,0.000
 01772,0.00003421,-0.00015569,0.00003730,-0.00001518,-0.00001839,-0.000
 00931,-0.00004508,-0.00001767,-0.00002065,-0.00006623,-0.00003077,0.00
 012960,-0.00004941,-0.00005659,-0.00006137,-0.00045188,-0.00000429,0.0
 0007157,-0.00023181,-0.00026402,-0.00032971,-0.00023169,-0.00048002,-0
 .00077188,-0.00020644,0.00055199,-0.00009096,0.00004059,-0.00009378,0.
 00021043,-0.00000524,-0.00006064,0.00126146,-0.00148079,-0.00011452,0.
 00008422,0.00045582,-0.00021837,0.00001047,0.00007823,-0.00002023,0.00
 000270,0.00005151,0.00011613,-0.00280407,-0.00103839,0.00034944,0.0014
 5284,0.00018107,-0.00003816,0.00026723,0.00024117,-0.00013666,0.000614
 25,0.00011786,0.00019963,-0.00032118,0.00023860,0.00033377,0.00291255,
 0.00124282,-0.00012494,-0.00002154,-0.00016831,0.00006567,-0.00002308,
 -0.00010595,-0.00003790,-0.00006906,-0.00005755,-0.00001065,-0.0007742
 2,-0.00007397,-0.00034417,0.00014314,0.00020046,0.00029165,-0.00045250
 ,-0.00028217,-0.00031754,-0.00037451,-0.00008208,0.00003388,-0.0012418
 9,-0.00017942,0.00098659,0.00709609,-0.00922815,0.00376368,-0.00034294
 ,0.00103849,-0.00013242,-0.00015731,0.00271896,-0.00161428,-0.00266885
 ,0.00865050,-0.00519896,-0.00305181,0.00408917,-0.00022708,0.00011362,
 0.00000941,-0.00005211,0.00004105,0.00002229,-0.00010648,0.00035354,-0
 .00022202,-0.00057178,-0.00000538,-0.00000573,0.00018178,0.00003884,0.
 00013492,-0.00008753,-0.00002767,0.00025209,-0.00017880,-0.00000904,-0
 .00012027,0.00006229,0.00011926,-0.00011034,0.00014820,-0.00047317,-0.
 00016010,0.00006417,-0.00039158,-0.00016170,-0.00038978,0.00013336,-0.
 00005409,-0.00001929,-0.00049995,-0.00066400,-0.00071345,0.00082531,-0
 .00030598,-0.00005314,0.00014690,0.00099783,-0.00028150,-0.00977211,-0
 .00207042,0.01013569,0.00104223,-0.00055906,-0.00136522,0.00071439,0.0
 0050571,-0.00004993,-0.15692818,-0.09504457,0.08811189,0.01760285,0.01
 332856,-0.01408873,-0.01254574,-0.01248984,0.00871917,0.15843000,-0.00
 023228,-0.00013000,0.00047630,0.00079400,0.00058184,-0.00059167,-0.000
 99542,-0.00085954,-0.00108805,0.00054110,-0.00033274,-0.00065955,-0.00
 004990,0.00003657,-0.00029960,0.00014636,0.00018581,-0.00013079,-0.000
 01402,-0.00005772,0.00003369,0.00006163,0.00007732,0.00011213,0.000049
 27,0.00024927,-0.00028738,0.00009928,-0.00000079,0.00008340,0.00000107
 ,0.00002934,0.00000421,0.00002567,0.00020281,0.00039622,0.00033942,0.0
 0088354,0.00082469,-0.00109333,0.00272352,0.00119329,-0.00071762,-0.00
 063208,0.00060322,-0.00004425,0.00005598,-0.00003030,-0.00001208,0.000
 03482,0.00004199,0.00002743,-0.00000528,0.00000901,-0.00005173,-0.0000
 1521,0.00011903,-0.00000773,-0.00001548,-0.00000674,0.00001588,-0.0000
 9301,-0.00013948,-0.00020119,-0.00010668,0.00014573,0.00145342,0.00021
 711,-0.00025868,0.00057526,-0.00059021,-0.00070481,-0.00013510,0.00034
 307,0.00055841,-0.00009310,0.00016914,0.00006589,0.00048123,0.00008085
 ,-0.00023974,0.00001903,0.00025213,-0.00000020,-0.00047269,0.00050629,
 -0.00018101,0.00003234,-0.00000294,-0.00008847,-0.00000253,0.00001717,
 -0.00001608,-0.00003679,-0.00003233,0.00002087,-0.00003821,-0.00004670
 ,-0.00002091,0.00010325,-0.00005592,0.00000180,-0.00009721,-0.00034405
 ,0.00006171,0.00003800,-0.00022407,-0.00010871,0.00022898,-0.00041330,
 -0.00040927,-0.00015471,0.00016643,0.00002894,-0.00015702,-0.00002939,
 -0.00004550,0.00004147,-0.00003793,0.00001520,0.00012751,-0.00148394,0
 .00049232,0.00037484,0.00020974,-0.00011604,0.00002970,0.00003600,-0.0
 0000378,-0.00001005,0.00004668,0.00007160,-0.00225631,-0.00036667,-0.0
 0124541,0.00224063,0.00022455,0.00053216,0.00006792,0.00040824,0.00000
 029,0.00027997,0.00016087,0.00031544,-0.00037767,0.00042450,0.00028721
 ,0.00042571,0.00040154,0.00076115,-0.00015551,-0.00002928,-0.00018965,
 -0.00003612,-0.00007699,-0.00001708,-0.00003317,-0.00006114,0.00001234
 ,-0.00026093,0.00004701,-0.00033077,0.00010189,0.00016702,0.00009780,-
 0.00018588,-0.00038612,-0.00036031,-0.00027254,-0.00024090,-0.00027880
 ,-0.00104692,-0.00013890,0.00055004,0.00076044,-0.00580024,0.00267342,
 -0.00031374,0.00014087,-0.00007886,0.00007434,0.00107004,-0.00071247,0
 .00660732,-0.00797620,-0.00198667,0.00112595,0.00715022,-0.00189439,0.
 00005134,0.00003057,-0.00000998,0.00006053,0.00008442,0.00000330,0.000
 44716,-0.00016699,-0.00032174,-0.00006696,-0.00000826,0.00007418,-0.00
 000686,-0.00002660,-0.00004424,0.00003021,0.00010901,-0.00007894,0.000
 00623,-0.00007135,0.00005019,0.00003735,-0.00006852,0.00007016,-0.0001
 5677,-0.00036856,0.00061740,-0.00009329,0.00003659,-0.00026503,-0.0003
 1804,-0.00012817,-0.00007231,0.00034834,0.00222553,-0.00175835,-0.0001
 2997,-0.00036376,0.00032743,-0.00010067,-0.00108692,0.00086541,0.01363
 433,0.01993905,-0.01049260,-0.00015495,0.00013798,-0.00038857,0.003226
 67,-0.00352706,-0.00444626,-0.09087894,-0.15443850,0.08307040,-0.01550
 174,-0.01574292,0.01256173,-0.00725282,-0.00951780,0.00627960,0.089084
 27,0.16623772,0.00022952,0.00018030,-0.00007730,-0.00048680,-0.0006361
 5,0.00025944,0.00060940,-0.00008693,-0.00000179,-0.00183190,-0.0011111
 5,0.00141174,0.00021374,-0.00012659,-0.00034870,-0.00020071,-0.0001692
 9,-0.00002644,0.00002265,0.00005788,-0.00003087,-0.00007933,0.00011723
 ,-0.00003132,0.00006868,0.00023470,-0.00025058,-0.00003269,0.00002881,
 0.00000949,0.00001627,-0.00002058,-0.00002480,0.00020627,0.00020768,-0
 .00013183,0.00033709,-0.00128416,-0.00348768,0.00034932,0.00008191,-0.
 00141872,0.00024183,0.00057689,-0.00016188,0.00001037,-0.00010155,-0.0
 0001919,0.00000557,-0.00001791,-0.00003379,-0.00001220,0.00000896,-0.0
 0000507,0.00007926,0.00010060,-0.00003912,-0.00000583,-0.00000786,-0.0
 0000383,0.00001878,0.00005849,0.00002276,0.00015029,0.00010653,-0.0000
 3446,-0.00004251,-0.00080565,0.00024347,-0.00057113,0.00043202,0.00039
 736,0.00033010,-0.00034521,-0.00038270,0.00010114,-0.00010766,-0.00013
 567,-0.00008263,0.00001017,0.00003722,0.00000674,-0.00019215,0.0000378
 4,0.00047778,-0.00039783,0.00016235,-0.00005680,0.00000594,0.00006477,
 -0.00000860,-0.00001330,-0.00001013,-0.00001831,0.00003257,0.00001417,
 0.00000473,0.00002950,0.00000693,-0.00010231,0.00003674,0.00000368,-0.
 00001715,0.00027551,-0.00008951,-0.00010595,0.00014979,0.00017279,-0.0
 0044395,0.00022105,0.00045666,0.00012143,-0.00006930,-0.00007841,0.000
 08603,-0.00000870,0.00005154,-0.00004308,0.00003280,-0.00000267,-0.000
 25294,0.00091670,-0.00051842,-0.00041330,-0.00001349,0.00023596,0.0000
 1386,-0.00004032,0.00001615,0.00001920,-0.00003110,-0.00007745,0.00216
 608,-0.00065862,0.00117335,-0.00266303,-0.00028573,-0.00062945,-0.0001
 3396,-0.00013218,-0.00016646,-0.00026266,-0.00023137,-0.00035456,0.000
 40279,0.00011454,-0.00047720,0.00032581,0.00048739,-0.00078339,0.00025
 440,-0.00003763,0.00027817,-0.00001695,-0.00001538,0.00001966,0.000050
 08,0.00002501,0.00004110,0.00012159,-0.00016742,0.00031678,0.00006114,
 -0.00032707,-0.00036488,0.00015498,0.00030045,0.00035786,0.00037905,0.
 00009454,0.00034771,0.00133471,-0.00003898,-0.00084864,-0.00170081,0.0
 0491104,-0.00310091,0.00006626,-0.00076393,0.00031308,-0.00003698,-0.0
 0121243,0.00062225,-0.00556231,-0.00249694,-0.00205558,0.00144475,-0.0
 0337658,0.00014165,-0.00005272,-0.00001718,-0.00002062,-0.00009715,-0.
 00003793,0.00001756,-0.00050672,0.00041681,0.00061761,0.00005998,-0.00
 002921,-0.00013103,-0.00002210,-0.00004873,0.00005543,-0.00001786,-0.0
 0023185,0.00010733,0.00003583,0.00007534,-0.00006287,-0.00008670,0.000
 09802,-0.00011408,0.00009834,0.00041064,-0.00020766,-0.00007444,-0.000
 12090,0.00026527,0.00005928,-0.00003469,-0.00013886,-0.00087185,-0.000
 05334,0.00196758,-0.00058886,0.00042817,-0.00028374,0.00017934,-0.0003
 3302,0.00056528,0.01480051,0.00885047,-0.01488188,-0.00056805,0.000812
 53,-0.00011602,0.00067588,-0.00218708,-0.00110170,0.08341585,0.0824446
 6,-0.13873561,0.00836845,0.01072926,-0.00813825,-0.01204429,-0.0115664
 5,0.02120285,-0.08805961,-0.08411010,0.14812090\\-0.00001274,-0.000009
 94,-0.00002483,0.00000233,0.00002177,0.00004316,0.00000235,-0.00001937
 ,-0.00000858,0.00000286,-0.00000822,-0.00003247,-0.00000581,0.00000731
 ,0.00002659,0.00001263,0.00000041,0.00000410,-0.00000432,0.00000007,-0
 .00000569,0.00000324,0.00000565,0.00000257,-0.00000110,-0.00000295,0.0
 0000072,0.00000446,-0.00000291,-0.00000260,-0.00000651,-0.00000679,0.0
 0000559,-0.00000313,0.00000989,0.00002389,-0.00001174,0.00001039,0.000
 04013,0.00000428,-0.00000314,0.00001494,-0.00000770,-0.00000674,0.0000
 0026,-0.00000606,-0.00001427,0.00000264,-0.00000788,-0.00000378,0.0000
 0449,-0.00000189,-0.00000365,0.00000323,0.00000272,0.00001256,-0.00000
 670,-0.00000305,-0.00000838,0.00001637,-0.00000272,-0.00000505,-0.0000
 0818,0.00000315,0.00000376,-0.00000810,0.00000057,0.00001294,-0.000004
 62,0.00000479,0.00000777,0.00000141,0.00001272,-0.00002546,-0.00001965
 ,0.00000902,-0.00001085,0.00000128,0.00000527,0.00000379,0.00000107,-0
 .00001249,-0.00000475,-0.00000235,0.00000779,-0.00000839,-0.00000404,-
 0.00000444,-0.00000463,0.00000409,0.00000517,-0.00000519,0.00000375,-0
 .00000051,-0.00000075,0.00000334,-0.00000538,-0.00000213,-0.00000092,-
 0.00000375,-0.00000240,-0.00000090,0.00000532,-0.00000813,0.00000005,-
 0.00001244,-0.00000506,-0.00000508,-0.00002245,0.00000599,0.00000173,-
 0.00000041,-0.00000209,-0.00000620,-0.00000057,-0.00000165,-0.00000427
 ,-0.00000164,0.00000282,0.00000017,0.00000606,0.00000237,0.00000078,0.
 00000109,0.00000126,-0.00000405,0.00000139,0.00000748,-0.00000247,0.00
 000046,-0.00000059,0.00000104,-0.00000313,0.00000575,0.00001446,0.0000
 2867,0.00001026,-0.00002285,-0.00000214,-0.00000255,0.00000784,0.00000
 301,0.00001269,0.00000615,0.00002412,-0.00000664,-0.00001064,-0.000008
 47,0.00001821,-0.00000953,-0.00000085,-0.00000822,0.00000106,-0.000002
 23,0.00000248,-0.00000315,-0.00000575,-0.00000686,0.00000007,-0.000003
 31,-0.00001074,-0.00000335,-0.00000157,0.00000811,0.00000099,-0.000005
 55,-0.00001645,-0.00000333,-0.00000224,-0.00000831,-0.00000347,-0.0000
 1211,-0.00001269,0.00001950,0.00001351,0.00000404,-0.00000832,0.000005
 28,-0.00000223,-0.00000334,0.00000015,-0.00000166,-0.00000136,-0.00002
 046,0.00001131,-0.00000761,0.00000340,0.00000189,0.00000281,-0.0000010
 9,-0.00000094,-0.00000048,-0.00000262,0.00000262,0.00000151,-0.0000046
 4,0.00000803,-0.00000687,0.00000216,0.00000196,-0.00000042,-0.00000065
 ,0.00000139,-0.00000002,0.00000083,0.00000463,-0.00000023,0.00000504,0
 .00000296,-0.00000130,0.00000352,0.00000238,0.00000342,0.00000404,0.00
 000544,0.00000093,0.00000425,0.00000358,0.00000381,0.00000216,0.000009
 51,0.00000129,0.00000237,-0.00000616,-0.00000383,0.00000368,0.00000552
 ,-0.00000064,0.00000040,0.00000259,0.00000150,-0.00000781,0.00001835,0
 .00000613,0.00000230,0.00000338,-0.00000165,0.00000677,0.00000354,-0.0
 0000511,0.00003579,-0.00000680,-0.00001183,-0.00001437,-0.00001090,0.0
 0000627,-0.00001310,0.00000699,-0.00001889,0.00000169,0.00000457,-0.00
 000521\\\@


 LORD, MAN... WERE YE BUT WHYLES WHERE I AM, 
 THE GENTILES YE WAD NE'ER ENVY 'EM.        
 IT'S TRUE, THEY NEEDNA STARVE OR SWEAT,     
 THRO' WINTER'S CAULD OR SIMMER'S HEAT...  
 THEY'VE NAE SAIR WARK TO CRAZE THEIR BANES, 
 AND FILL AULD AGE WITH GRIPS AN' GRANES...  
                                             
 BUT HUMAN BODIES ARE SIC FOOLS              
 FOR A' THEIR COLLEGES AND SCHOOLS,           
 THAT WHEN NAE REAL ILLS PERPLEX THEM,       
 THEY MAK ENOW THEMSELVES TO VEX THEM,       
 AN' AYE THE LESS THEY HAE TO STURT THEM,    
 IN LIKE PROPORTION LESS WILL HURT THEM....  
                                             
                (ROBERT BURNS 'THE TWA DOGS')
 Job cpu time:      21 days 21 hours 56 minutes  2.4 seconds.
 File lengths (MBytes):  RWF=  17383 Int=      0 D2E=      0 Chk=    104 Scr=      1
 Normal termination of Gaussian 09 at Sun May  1 16:14:24 2016.
