 Entering Gaussian System, Link 0=g09
 Initial command:
 /share/apps//g09/l1.exe "/scratch/Gau-37229.inp" -scrdir="/scratch/"
 Entering Link 1 = /share/apps//g09/l1.exe PID=     37230.
  
 Copyright (c) 1988,1990,1992,1993,1995,1998,2003,2009,2013,
            Gaussian, Inc.  All Rights Reserved.
  
 This is part of the Gaussian(R) 09 program.  It is based on
 the Gaussian(R) 03 system (copyright 2003, Gaussian, Inc.),
 the Gaussian(R) 98 system (copyright 1998, Gaussian, Inc.),
 the Gaussian(R) 94 system (copyright 1995, Gaussian, Inc.),
 the Gaussian 92(TM) system (copyright 1992, Gaussian, Inc.),
 the Gaussian 90(TM) system (copyright 1990, Gaussian, Inc.),
 the Gaussian 88(TM) system (copyright 1988, Gaussian, Inc.),
 the Gaussian 86(TM) system (copyright 1986, Carnegie Mellon
 University), and the Gaussian 82(TM) system (copyright 1983,
 Carnegie Mellon University). Gaussian is a federally registered
 trademark of Gaussian, Inc.
  
 This software contains proprietary and confidential information,
 including trade secrets, belonging to Gaussian, Inc.
  
 This software is provided under written license and may be
 used, copied, transmitted, or stored only in accord with that
 written license.
  
 The following legend is applicable only to US Government
 contracts under FAR:
  
                    RESTRICTED RIGHTS LEGEND
  
 Use, reproduction and disclosure by the US Government is
 subject to restrictions as set forth in subparagraphs (a)
 and (c) of the Commercial Computer Software - Restricted
 Rights clause in FAR 52.227-19.
  
 Gaussian, Inc.
 340 Quinnipiac St., Bldg. 40, Wallingford CT 06492
  
  
 ---------------------------------------------------------------
 Warning -- This program may not be used in any manner that
 competes with the business of Gaussian, Inc. or will provide
 assistance to any competitor of Gaussian, Inc.  The licensee
 of this program is prohibited from giving any competitor of
 Gaussian, Inc. access to this program.  By using this program,
 the user acknowledges that Gaussian, Inc. is engaged in the
 business of creating and licensing software in the field of
 computational chemistry and represents and warrants to the
 licensee that it is not a competitor of Gaussian, Inc. and that
 it will not use this program in any manner prohibited above.
 ---------------------------------------------------------------
  

 Cite this work as:
 Gaussian 09, Revision D.01,
 M. J. Frisch, G. W. Trucks, H. B. Schlegel, G. E. Scuseria, 
 M. A. Robb, J. R. Cheeseman, G. Scalmani, V. Barone, B. Mennucci, 
 G. A. Petersson, H. Nakatsuji, M. Caricato, X. Li, H. P. Hratchian, 
 A. F. Izmaylov, J. Bloino, G. Zheng, J. L. Sonnenberg, M. Hada, 
 M. Ehara, K. Toyota, R. Fukuda, J. Hasegawa, M. Ishida, T. Nakajima, 
 Y. Honda, O. Kitao, H. Nakai, T. Vreven, J. A. Montgomery, Jr., 
 J. E. Peralta, F. Ogliaro, M. Bearpark, J. J. Heyd, E. Brothers, 
 K. N. Kudin, V. N. Staroverov, T. Keith, R. Kobayashi, J. Normand, 
 K. Raghavachari, A. Rendell, J. C. Burant, S. S. Iyengar, J. Tomasi, 
 M. Cossi, N. Rega, J. M. Millam, M. Klene, J. E. Knox, J. B. Cross, 
 V. Bakken, C. Adamo, J. Jaramillo, R. Gomperts, R. E. Stratmann, 
 O. Yazyev, A. J. Austin, R. Cammi, C. Pomelli, J. W. Ochterski, 
 R. L. Martin, K. Morokuma, V. G. Zakrzewski, G. A. Voth, 
 P. Salvador, J. J. Dannenberg, S. Dapprich, A. D. Daniels, 
 O. Farkas, J. B. Foresman, J. V. Ortiz, J. Cioslowski, 
 and D. J. Fox, Gaussian, Inc., Wallingford CT, 2013.
 
 ******************************************
 Gaussian 09:  EM64L-G09RevD.01 24-Apr-2013
                21-Apr-2016 
 ******************************************
 %nproc=20
 Will use up to   20 processors via shared memory.
 %mem=80GB
 %chk=Tri_A131_of.chk
 -------------------------------------------------------------------
 #P PBE1PBE/6-311+G(d,p) opt freq optcyc=999 EmpiricalDispersion=GD3
 -------------------------------------------------------------------
 1/6=999,14=-1,18=20,19=15,26=3,38=1/1,3;
 2/9=110,12=2,17=6,18=5,40=1/2;
 3/5=4,6=6,7=111,11=2,16=1,25=1,30=1,71=1,74=-13,124=31/1,2,3;
 4//1;
 5/5=2,38=5/2;
 6/7=2,8=2,9=2,10=2,28=1/1;
 7//1,2,3,16;
 1/6=999,14=-1,18=20,19=15,26=3/3(2);
 2/9=110/2;
 99//99;
 2/9=110/2;
 3/5=4,6=6,7=111,11=2,16=1,25=1,30=1,71=1,74=-13,124=31/1,2,3;
 4/5=5,16=3,69=1/1;
 5/5=2,38=5/2;
 7//1,2,3,16;
 1/6=999,14=-1,18=20,19=15,26=3/3(-5);
 2/9=110/2;
 6/7=2,8=2,9=2,10=2,19=2,28=1/1;
 99/9=1/99;
 Leave Link    1 at Thu Apr 21 17:46:03 2016, MaxMem= 10737418240 cpu:         1.6
 (Enter /share/apps//g09/l101.exe)
 -----
 trich
 -----
 Symbolic Z-matrix:
 Charge =  1 Multiplicity = 1
 O                     0.54262  -6.55297   9.44106 
 C                    -0.44293  -5.55917   9.24356 
 C                    -0.52307  -4.67464   10.49225 
 C                     0.84833  -4.08961   10.85223 
 C                     1.91309  -5.19901   10.93918 
 C                     1.88339  -6.00798   9.64141 
 H                    -1.38214  -6.11949   9.09007 
 H                    -0.8721   -5.32338   11.31487 
 H                     1.14653  -3.3758    10.06707 
 H                     2.90087  -4.72652   11.05987 
 H                     2.12917  -5.33256   8.80345 
 O                     1.716    -5.98387   12.12514 
 O                     0.73375  -3.34548   12.06439 
 O                    -1.48955  -3.61527   10.32032 
 O                    -0.16707  -4.70239   8.14538 
 C                     2.84625  -7.17999   9.59413 
 H                     3.83646  -6.82753   9.93584 
 H                     2.51111  -7.97686   10.28083 
 O                     2.8881   -7.63879   8.24104 
 H                     3.42973  -8.44466   8.21137 
 H                     1.06162  -6.67895   11.92076 
 H                     0.88024  -3.98904   12.7894 
 H                    -1.37904  -3.05105   11.11343 
 O                    -0.23962  -5.3546    4.00985 
 C                     0.98815  -4.90965   4.5805 
 C                     0.80301  -4.36184   6.01166 
 C                     0.03833  -5.35672   6.87629 
 C                    -1.29047  -5.73258   6.21142 
 C                    -1.02825  -6.25938   4.789 
 H                     1.74236  -5.71789   4.59595 
 H                     0.19591  -3.44176   5.94074 
 H                     0.64516  -6.26674   7.02698 
 H                    -1.76983  -6.55      6.78163 
 H                    -0.51805  -7.23996   4.87945 
 O                    -2.16942  -4.59016   6.20691 
 O                     2.05812  -4.08369   6.60367 
 O                     1.52422  -3.94747   3.69756 
 C                    -2.3198   -6.44886   3.98428 
 H                    -2.072    -6.84203   2.98635 
 H                    -2.97163  -7.1771    4.48851 
 O                    -3.05654  -5.221     3.87166 
 H                    -2.6046   -4.64832   3.18587 
 H                    -2.68071  -4.64168   5.33546 
 H                     2.37404  -3.26883   6.16005 
 O                     0.11345  -1.39102   1.45802 
 C                    -0.39168  -0.49166   2.39965 
 C                     0.5721   -0.27718   3.59238 
 C                     1.44592  -1.5184    3.8425 
 C                     0.6992   -2.79396   3.45028 
 C                     0.42009  -2.74084   1.93035 
 H                    -0.53499   0.45978   1.85898 
 H                    -0.0345   -0.11373   4.49698 
 H                     2.35272  -1.45553   3.21119 
 H                     1.36353  -3.00642   1.42474 
 H                    -0.25025  -2.8777    4.00077 
 O                     1.84015  -1.57769   5.22566 
 O                     1.36278   0.90428   3.47194 
 O                    -1.66651  -0.97712   2.87477 
 C                    -0.64441  -3.71409   1.42536 
 H                    -0.74114  -3.56375   0.33736 
 H                    -0.30304  -4.73996   1.61255 
 O                    -1.92616  -3.57668   2.05173 
 H                    -2.09046  -2.61421   2.18291 
 H                     2.37725  -0.78302   5.39787 
 H                     1.89627   0.83969   2.65703 
 C                    -2.58413   0.03733   3.3315 
 H                    -2.07154   0.72025   4.03254 
 H                    -2.92338   0.63763   2.4696 
 C                    -3.76307  -0.66142   3.9959 
 H                    -4.23997  -1.31932   3.25252 
 H                    -4.51316   0.10626   4.24711 
 C                    -3.4158   -1.4885    5.24513 
 H                    -4.29736  -2.09504   5.50949 
 H                    -2.61798  -2.20253   4.98588 
 C                    -3.00946  -0.64499   6.46309 
 H                    -2.05263  -0.12334   6.28482 
 H                    -3.75422   0.1527    6.61892 
 C                    -2.91859  -1.41062   7.78154 
 H                    -3.8491   -1.95708   7.99009 
 H                    -2.74122  -0.7191    8.61632 
 N                    -1.81728  -2.42695   7.80279 
 H                    -1.98794  -3.25271   7.14969 
 H                    -1.67627  -2.84526   8.76034 
 H                    -0.91627  -2.01311   7.53238 
 
 NAtoms=     84 NQM=       84 NQMF=       0 NMMI=      0 NMMIF=      0
                NMic=       0 NMicF=      0.
                    Isotopes and Nuclear Properties:
 (Nuclear quadrupole moments (NQMom) in fm**2, nuclear magnetic moments (NMagM)
  in nuclear magnetons)

  Atom         1           2           3           4           5           6           7           8           9          10
 IAtWgt=          16          12          12          12          12          12           1           1           1           1
 AtmWgt=  15.9949146  12.0000000  12.0000000  12.0000000  12.0000000  12.0000000   1.0078250   1.0078250   1.0078250   1.0078250
 NucSpn=           0           0           0           0           0           0           1           1           1           1
 AtZEff=   0.0000000   0.0000000   0.0000000   0.0000000   0.0000000   0.0000000   0.0000000   0.0000000   0.0000000   0.0000000
 NQMom=    0.0000000   0.0000000   0.0000000   0.0000000   0.0000000   0.0000000   0.0000000   0.0000000   0.0000000   0.0000000
 NMagM=    0.0000000   0.0000000   0.0000000   0.0000000   0.0000000   0.0000000   2.7928460   2.7928460   2.7928460   2.7928460
 AtZNuc=   8.0000000   6.0000000   6.0000000   6.0000000   6.0000000   6.0000000   1.0000000   1.0000000   1.0000000   1.0000000

  Atom        11          12          13          14          15          16          17          18          19          20
 IAtWgt=           1          16          16          16          16          12           1           1          16           1
 AtmWgt=   1.0078250  15.9949146  15.9949146  15.9949146  15.9949146  12.0000000   1.0078250   1.0078250  15.9949146   1.0078250
 NucSpn=           1           0           0           0           0           0           1           1           0           1
 AtZEff=   0.0000000   0.0000000   0.0000000   0.0000000   0.0000000   0.0000000   0.0000000   0.0000000   0.0000000   0.0000000
 NQMom=    0.0000000   0.0000000   0.0000000   0.0000000   0.0000000   0.0000000   0.0000000   0.0000000   0.0000000   0.0000000
 NMagM=    2.7928460   0.0000000   0.0000000   0.0000000   0.0000000   0.0000000   2.7928460   2.7928460   0.0000000   2.7928460
 AtZNuc=   1.0000000   8.0000000   8.0000000   8.0000000   8.0000000   6.0000000   1.0000000   1.0000000   8.0000000   1.0000000

  Atom        21          22          23          24          25          26          27          28          29          30
 IAtWgt=           1           1           1          16          12          12          12          12          12           1
 AtmWgt=   1.0078250   1.0078250   1.0078250  15.9949146  12.0000000  12.0000000  12.0000000  12.0000000  12.0000000   1.0078250
 NucSpn=           1           1           1           0           0           0           0           0           0           1
 AtZEff=   0.0000000   0.0000000   0.0000000   0.0000000   0.0000000   0.0000000   0.0000000   0.0000000   0.0000000   0.0000000
 NQMom=    0.0000000   0.0000000   0.0000000   0.0000000   0.0000000   0.0000000   0.0000000   0.0000000   0.0000000   0.0000000
 NMagM=    2.7928460   2.7928460   2.7928460   0.0000000   0.0000000   0.0000000   0.0000000   0.0000000   0.0000000   2.7928460
 AtZNuc=   1.0000000   1.0000000   1.0000000   8.0000000   6.0000000   6.0000000   6.0000000   6.0000000   6.0000000   1.0000000

  Atom        31          32          33          34          35          36          37          38          39          40
 IAtWgt=           1           1           1           1          16          16          16          12           1           1
 AtmWgt=   1.0078250   1.0078250   1.0078250   1.0078250  15.9949146  15.9949146  15.9949146  12.0000000   1.0078250   1.0078250
 NucSpn=           1           1           1           1           0           0           0           0           1           1
 AtZEff=   0.0000000   0.0000000   0.0000000   0.0000000   0.0000000   0.0000000   0.0000000   0.0000000   0.0000000   0.0000000
 NQMom=    0.0000000   0.0000000   0.0000000   0.0000000   0.0000000   0.0000000   0.0000000   0.0000000   0.0000000   0.0000000
 NMagM=    2.7928460   2.7928460   2.7928460   2.7928460   0.0000000   0.0000000   0.0000000   0.0000000   2.7928460   2.7928460
 AtZNuc=   1.0000000   1.0000000   1.0000000   1.0000000   8.0000000   8.0000000   8.0000000   6.0000000   1.0000000   1.0000000

  Atom        41          42          43          44          45          46          47          48          49          50
 IAtWgt=          16           1           1           1          16          12          12          12          12          12
 AtmWgt=  15.9949146   1.0078250   1.0078250   1.0078250  15.9949146  12.0000000  12.0000000  12.0000000  12.0000000  12.0000000
 NucSpn=           0           1           1           1           0           0           0           0           0           0
 AtZEff=   0.0000000   0.0000000   0.0000000   0.0000000   0.0000000   0.0000000   0.0000000   0.0000000   0.0000000   0.0000000
 NQMom=    0.0000000   0.0000000   0.0000000   0.0000000   0.0000000   0.0000000   0.0000000   0.0000000   0.0000000   0.0000000
 NMagM=    0.0000000   2.7928460   2.7928460   2.7928460   0.0000000   0.0000000   0.0000000   0.0000000   0.0000000   0.0000000
 AtZNuc=   8.0000000   1.0000000   1.0000000   1.0000000   8.0000000   6.0000000   6.0000000   6.0000000   6.0000000   6.0000000

  Atom        51          52          53          54          55          56          57          58          59          60
 IAtWgt=           1           1           1           1           1          16          16          16          12           1
 AtmWgt=   1.0078250   1.0078250   1.0078250   1.0078250   1.0078250  15.9949146  15.9949146  15.9949146  12.0000000   1.0078250
 NucSpn=           1           1           1           1           1           0           0           0           0           1
 AtZEff=   0.0000000   0.0000000   0.0000000   0.0000000   0.0000000   0.0000000   0.0000000   0.0000000   0.0000000   0.0000000
 NQMom=    0.0000000   0.0000000   0.0000000   0.0000000   0.0000000   0.0000000   0.0000000   0.0000000   0.0000000   0.0000000
 NMagM=    2.7928460   2.7928460   2.7928460   2.7928460   2.7928460   0.0000000   0.0000000   0.0000000   0.0000000   2.7928460
 AtZNuc=   1.0000000   1.0000000   1.0000000   1.0000000   1.0000000   8.0000000   8.0000000   8.0000000   6.0000000   1.0000000

  Atom        61          62          63          64          65          66          67          68          69          70
 IAtWgt=           1          16           1           1           1          12           1           1          12           1
 AtmWgt=   1.0078250  15.9949146   1.0078250   1.0078250   1.0078250  12.0000000   1.0078250   1.0078250  12.0000000   1.0078250
 NucSpn=           1           0           1           1           1           0           1           1           0           1
 AtZEff=   0.0000000   0.0000000   0.0000000   0.0000000   0.0000000   0.0000000   0.0000000   0.0000000   0.0000000   0.0000000
 NQMom=    0.0000000   0.0000000   0.0000000   0.0000000   0.0000000   0.0000000   0.0000000   0.0000000   0.0000000   0.0000000
 NMagM=    2.7928460   0.0000000   2.7928460   2.7928460   2.7928460   0.0000000   2.7928460   2.7928460   0.0000000   2.7928460
 AtZNuc=   1.0000000   8.0000000   1.0000000   1.0000000   1.0000000   6.0000000   1.0000000   1.0000000   6.0000000   1.0000000

  Atom        71          72          73          74          75          76          77          78          79          80
 IAtWgt=           1          12           1           1          12           1           1          12           1           1
 AtmWgt=   1.0078250  12.0000000   1.0078250   1.0078250  12.0000000   1.0078250   1.0078250  12.0000000   1.0078250   1.0078250
 NucSpn=           1           0           1           1           0           1           1           0           1           1
 AtZEff=   0.0000000   0.0000000   0.0000000   0.0000000   0.0000000   0.0000000   0.0000000   0.0000000   0.0000000   0.0000000
 NQMom=    0.0000000   0.0000000   0.0000000   0.0000000   0.0000000   0.0000000   0.0000000   0.0000000   0.0000000   0.0000000
 NMagM=    2.7928460   0.0000000   2.7928460   2.7928460   0.0000000   2.7928460   2.7928460   0.0000000   2.7928460   2.7928460
 AtZNuc=   1.0000000   6.0000000   1.0000000   1.0000000   6.0000000   1.0000000   1.0000000   6.0000000   1.0000000   1.0000000

  Atom        81          82          83          84
 IAtWgt=          14           1           1           1
 AtmWgt=  14.0030740   1.0078250   1.0078250   1.0078250
 NucSpn=           2           1           1           1
 AtZEff=   0.0000000   0.0000000   0.0000000   0.0000000
 NQMom=    2.0440000   0.0000000   0.0000000   0.0000000
 NMagM=    0.4037610   2.7928460   2.7928460   2.7928460
 AtZNuc=   7.0000000   1.0000000   1.0000000   1.0000000
 Leave Link  101 at Thu Apr 21 17:46:03 2016, MaxMem= 10737418240 cpu:         5.0
 (Enter /share/apps//g09/l103.exe)

 GradGradGradGradGradGradGradGradGradGradGradGradGradGradGradGradGradGrad
 Berny optimization.
 Initialization pass.
                           ----------------------------
                           !    Initial Parameters    !
                           ! (Angstroms and Degrees)  !
 --------------------------                            --------------------------
 ! Name  Definition              Value          Derivative Info.                !
 --------------------------------------------------------------------------------
 ! R1    R(1,2)                  1.4135         estimate D2E/DX2                !
 ! R2    R(1,6)                  1.4611         estimate D2E/DX2                !
 ! R3    R(2,3)                  1.5323         estimate D2E/DX2                !
 ! R4    R(2,7)                  1.1044         estimate D2E/DX2                !
 ! R5    R(2,15)                 1.4199         estimate D2E/DX2                !
 ! R6    R(3,4)                  1.5338         estimate D2E/DX2                !
 ! R7    R(3,8)                  1.1043         estimate D2E/DX2                !
 ! R8    R(3,14)                 1.4443         estimate D2E/DX2                !
 ! R9    R(4,5)                  1.5401         estimate D2E/DX2                !
 ! R10   R(4,9)                  1.1022         estimate D2E/DX2                !
 ! R11   R(4,13)                 1.427          estimate D2E/DX2                !
 ! R12   R(5,6)                  1.5295         estimate D2E/DX2                !
 ! R13   R(5,10)                 1.1016         estimate D2E/DX2                !
 ! R14   R(5,12)                 1.4357         estimate D2E/DX2                !
 ! R15   R(6,11)                 1.104          estimate D2E/DX2                !
 ! R16   R(6,16)                 1.5175         estimate D2E/DX2                !
 ! R17   R(12,21)                0.9763         estimate D2E/DX2                !
 ! R18   R(13,22)                0.9804         estimate D2E/DX2                !
 ! R19   R(14,23)                0.9796         estimate D2E/DX2                !
 ! R20   R(15,27)                1.4425         estimate D2E/DX2                !
 ! R21   R(16,17)                1.1052         estimate D2E/DX2                !
 ! R22   R(16,18)                1.104          estimate D2E/DX2                !
 ! R23   R(16,19)                1.4294         estimate D2E/DX2                !
 ! R24   R(19,20)                0.9714         estimate D2E/DX2                !
 ! R25   R(24,25)                1.4251         estimate D2E/DX2                !
 ! R26   R(24,29)                1.431          estimate D2E/DX2                !
 ! R27   R(25,26)                1.5436         estimate D2E/DX2                !
 ! R28   R(25,30)                1.1056         estimate D2E/DX2                !
 ! R29   R(25,37)                1.4116         estimate D2E/DX2                !
 ! R30   R(26,27)                1.5238         estimate D2E/DX2                !
 ! R31   R(26,31)                1.1046         estimate D2E/DX2                !
 ! R32   R(26,36)                1.4153         estimate D2E/DX2                !
 ! R33   R(27,28)                1.5327         estimate D2E/DX2                !
 ! R34   R(27,32)                1.1041         estimate D2E/DX2                !
 ! R35   R(28,29)                1.5393         estimate D2E/DX2                !
 ! R36   R(28,33)                1.1059         estimate D2E/DX2                !
 ! R37   R(28,35)                1.4414         estimate D2E/DX2                !
 ! R38   R(29,34)                1.1091         estimate D2E/DX2                !
 ! R39   R(29,38)                1.5335         estimate D2E/DX2                !
 ! R40   R(35,43)                1.0117         estimate D2E/DX2                !
 ! R41   R(36,44)                0.9801         estimate D2E/DX2                !
 ! R42   R(37,49)                1.4396         estimate D2E/DX2                !
 ! R43   R(38,39)                1.1008         estimate D2E/DX2                !
 ! R44   R(38,40)                1.0998         estimate D2E/DX2                !
 ! R45   R(38,41)                1.4364         estimate D2E/DX2                !
 ! R46   R(41,42)                1.0013         estimate D2E/DX2                !
 ! R47   R(45,46)                1.3967         estimate D2E/DX2                !
 ! R48   R(45,50)                1.4626         estimate D2E/DX2                !
 ! R49   R(46,47)                1.5484         estimate D2E/DX2                !
 ! R50   R(46,51)                1.1037         estimate D2E/DX2                !
 ! R51   R(46,58)                1.4445         estimate D2E/DX2                !
 ! R52   R(47,48)                1.5384         estimate D2E/DX2                !
 ! R53   R(47,52)                1.1014         estimate D2E/DX2                !
 ! R54   R(47,57)                1.4267         estimate D2E/DX2                !
 ! R55   R(48,49)                1.5292         estimate D2E/DX2                !
 ! R56   R(48,53)                1.1067         estimate D2E/DX2                !
 ! R57   R(48,56)                1.4395         estimate D2E/DX2                !
 ! R58   R(49,50)                1.5463         estimate D2E/DX2                !
 ! R59   R(49,55)                1.1007         estimate D2E/DX2                !
 ! R60   R(50,54)                1.1028         estimate D2E/DX2                !
 ! R61   R(50,59)                1.5282         estimate D2E/DX2                !
 ! R62   R(56,64)                0.9745         estimate D2E/DX2                !
 ! R63   R(57,65)                0.9761         estimate D2E/DX2                !
 ! R64   R(58,66)                1.4421         estimate D2E/DX2                !
 ! R65   R(59,60)                1.1026         estimate D2E/DX2                !
 ! R66   R(59,61)                1.0973         estimate D2E/DX2                !
 ! R67   R(59,62)                1.4332         estimate D2E/DX2                !
 ! R68   R(62,63)                0.9852         estimate D2E/DX2                !
 ! R69   R(66,67)                1.1048         estimate D2E/DX2                !
 ! R70   R(66,68)                1.1038         estimate D2E/DX2                !
 ! R71   R(66,69)                1.523          estimate D2E/DX2                !
 ! R72   R(69,70)                1.1013         estimate D2E/DX2                !
 ! R73   R(69,71)                1.1023         estimate D2E/DX2                !
 ! R74   R(69,72)                1.5379         estimate D2E/DX2                !
 ! R75   R(72,73)                1.1022         estimate D2E/DX2                !
 ! R76   R(72,74)                1.1016         estimate D2E/DX2                !
 ! R77   R(72,75)                1.5362         estimate D2E/DX2                !
 ! R78   R(75,76)                1.1043         estimate D2E/DX2                !
 ! R79   R(75,77)                1.1024         estimate D2E/DX2                !
 ! R80   R(75,78)                1.5273         estimate D2E/DX2                !
 ! R81   R(78,79)                1.0991         estimate D2E/DX2                !
 ! R82   R(78,80)                1.0984         estimate D2E/DX2                !
 ! R83   R(78,81)                1.4988         estimate D2E/DX2                !
 ! R84   R(81,82)                1.0666         estimate D2E/DX2                !
 ! R85   R(81,83)                1.0544         estimate D2E/DX2                !
 ! R86   R(81,84)                1.0277         estimate D2E/DX2                !
 ! A1    A(2,1,6)              113.3741         estimate D2E/DX2                !
 ! A2    A(1,2,3)              109.175          estimate D2E/DX2                !
 ! A3    A(1,2,7)              104.8134         estimate D2E/DX2                !
 ! A4    A(1,2,15)             113.3811         estimate D2E/DX2                !
 ! A5    A(3,2,7)              111.2018         estimate D2E/DX2                !
 ! A6    A(3,2,15)             106.9837         estimate D2E/DX2                !
 ! A7    A(7,2,15)             111.3385         estimate D2E/DX2                !
 ! A8    A(2,3,4)              111.387          estimate D2E/DX2                !
 ! A9    A(2,3,8)              106.5268         estimate D2E/DX2                !
 ! A10   A(2,3,14)             111.1861         estimate D2E/DX2                !
 ! A11   A(4,3,8)              109.3812         estimate D2E/DX2                !
 ! A12   A(4,3,14)             110.2728         estimate D2E/DX2                !
 ! A13   A(8,3,14)             107.9442         estimate D2E/DX2                !
 ! A14   A(3,4,5)              110.8938         estimate D2E/DX2                !
 ! A15   A(3,4,9)              108.7671         estimate D2E/DX2                !
 ! A16   A(3,4,13)             109.0552         estimate D2E/DX2                !
 ! A17   A(5,4,9)              108.6425         estimate D2E/DX2                !
 ! A18   A(5,4,13)             112.5314         estimate D2E/DX2                !
 ! A19   A(9,4,13)             106.8053         estimate D2E/DX2                !
 ! A20   A(4,5,6)              108.6417         estimate D2E/DX2                !
 ! A21   A(4,5,10)             108.4899         estimate D2E/DX2                !
 ! A22   A(4,5,12)             110.2124         estimate D2E/DX2                !
 ! A23   A(6,5,10)             109.7074         estimate D2E/DX2                !
 ! A24   A(6,5,12)             114.1461         estimate D2E/DX2                !
 ! A25   A(10,5,12)            105.4894         estimate D2E/DX2                !
 ! A26   A(1,6,5)              109.3562         estimate D2E/DX2                !
 ! A27   A(1,6,11)             109.1727         estimate D2E/DX2                !
 ! A28   A(1,6,16)             106.8513         estimate D2E/DX2                !
 ! A29   A(5,6,11)             108.428          estimate D2E/DX2                !
 ! A30   A(5,6,16)             114.9978         estimate D2E/DX2                !
 ! A31   A(11,6,16)            107.9144         estimate D2E/DX2                !
 ! A32   A(5,12,21)            107.9562         estimate D2E/DX2                !
 ! A33   A(4,13,22)            105.8945         estimate D2E/DX2                !
 ! A34   A(3,14,23)            104.5134         estimate D2E/DX2                !
 ! A35   A(2,15,27)            115.7458         estimate D2E/DX2                !
 ! A36   A(6,16,17)            108.2121         estimate D2E/DX2                !
 ! A37   A(6,16,18)            110.2096         estimate D2E/DX2                !
 ! A38   A(6,16,19)            107.2154         estimate D2E/DX2                !
 ! A39   A(17,16,18)           108.0499         estimate D2E/DX2                !
 ! A40   A(17,16,19)           111.6422         estimate D2E/DX2                !
 ! A41   A(18,16,19)           111.4698         estimate D2E/DX2                !
 ! A42   A(16,19,20)           108.1505         estimate D2E/DX2                !
 ! A43   A(25,24,29)           117.0121         estimate D2E/DX2                !
 ! A44   A(24,25,26)           112.255          estimate D2E/DX2                !
 ! A45   A(24,25,30)           111.4109         estimate D2E/DX2                !
 ! A46   A(24,25,37)           106.8288         estimate D2E/DX2                !
 ! A47   A(26,25,30)           109.1666         estimate D2E/DX2                !
 ! A48   A(26,25,37)           112.5549         estimate D2E/DX2                !
 ! A49   A(30,25,37)           104.3574         estimate D2E/DX2                !
 ! A50   A(25,26,27)           110.7668         estimate D2E/DX2                !
 ! A51   A(25,26,31)           107.5782         estimate D2E/DX2                !
 ! A52   A(25,26,36)           110.5612         estimate D2E/DX2                !
 ! A53   A(27,26,31)           107.7246         estimate D2E/DX2                !
 ! A54   A(27,26,36)           109.632          estimate D2E/DX2                !
 ! A55   A(31,26,36)           110.5211         estimate D2E/DX2                !
 ! A56   A(15,27,26)           105.9314         estimate D2E/DX2                !
 ! A57   A(15,27,28)           111.6805         estimate D2E/DX2                !
 ! A58   A(15,27,32)           109.3927         estimate D2E/DX2                !
 ! A59   A(26,27,28)           110.4281         estimate D2E/DX2                !
 ! A60   A(26,27,32)           109.8612         estimate D2E/DX2                !
 ! A61   A(28,27,32)           109.4865         estimate D2E/DX2                !
 ! A62   A(27,28,29)           109.6997         estimate D2E/DX2                !
 ! A63   A(27,28,33)           109.4743         estimate D2E/DX2                !
 ! A64   A(27,28,35)           109.6131         estimate D2E/DX2                !
 ! A65   A(29,28,33)           107.2966         estimate D2E/DX2                !
 ! A66   A(29,28,35)           111.8525         estimate D2E/DX2                !
 ! A67   A(33,28,35)           108.851          estimate D2E/DX2                !
 ! A68   A(24,29,28)           112.373          estimate D2E/DX2                !
 ! A69   A(24,29,34)           110.4822         estimate D2E/DX2                !
 ! A70   A(24,29,38)           104.8664         estimate D2E/DX2                !
 ! A71   A(28,29,34)           107.7932         estimate D2E/DX2                !
 ! A72   A(28,29,38)           112.5645         estimate D2E/DX2                !
 ! A73   A(34,29,38)           108.7234         estimate D2E/DX2                !
 ! A74   A(28,35,43)           105.6945         estimate D2E/DX2                !
 ! A75   A(26,36,44)           105.0648         estimate D2E/DX2                !
 ! A76   A(25,37,49)           115.8464         estimate D2E/DX2                !
 ! A77   A(29,38,39)           109.2841         estimate D2E/DX2                !
 ! A78   A(29,38,40)           109.9021         estimate D2E/DX2                !
 ! A79   A(29,38,41)           111.5627         estimate D2E/DX2                !
 ! A80   A(39,38,40)           108.2128         estimate D2E/DX2                !
 ! A81   A(39,38,41)           110.4686         estimate D2E/DX2                !
 ! A82   A(40,38,41)           107.3376         estimate D2E/DX2                !
 ! A83   A(38,41,42)           108.1268         estimate D2E/DX2                !
 ! A84   A(46,45,50)           116.897          estimate D2E/DX2                !
 ! A85   A(45,46,47)           112.5457         estimate D2E/DX2                !
 ! A86   A(45,46,51)           105.7713         estimate D2E/DX2                !
 ! A87   A(45,46,58)           108.9372         estimate D2E/DX2                !
 ! A88   A(47,46,51)           109.802          estimate D2E/DX2                !
 ! A89   A(47,46,58)           110.0302         estimate D2E/DX2                !
 ! A90   A(51,46,58)           109.6486         estimate D2E/DX2                !
 ! A91   A(46,47,48)           111.5323         estimate D2E/DX2                !
 ! A92   A(46,47,52)           108.0848         estimate D2E/DX2                !
 ! A93   A(46,47,57)           113.2432         estimate D2E/DX2                !
 ! A94   A(48,47,52)           107.3999         estimate D2E/DX2                !
 ! A95   A(48,47,57)           111.5345         estimate D2E/DX2                !
 ! A96   A(52,47,57)           104.5768         estimate D2E/DX2                !
 ! A97   A(47,48,49)           110.728          estimate D2E/DX2                !
 ! A98   A(47,48,53)           109.076          estimate D2E/DX2                !
 ! A99   A(47,48,56)           110.1826         estimate D2E/DX2                !
 ! A100  A(49,48,53)           107.5284         estimate D2E/DX2                !
 ! A101  A(49,48,56)           110.2324         estimate D2E/DX2                !
 ! A102  A(53,48,56)           109.0301         estimate D2E/DX2                !
 ! A103  A(37,49,48)           110.1495         estimate D2E/DX2                !
 ! A104  A(37,49,50)           107.447          estimate D2E/DX2                !
 ! A105  A(37,49,55)           110.3334         estimate D2E/DX2                !
 ! A106  A(48,49,50)           108.156          estimate D2E/DX2                !
 ! A107  A(48,49,55)           110.8789         estimate D2E/DX2                !
 ! A108  A(50,49,55)           109.7872         estimate D2E/DX2                !
 ! A109  A(45,50,49)           112.7676         estimate D2E/DX2                !
 ! A110  A(45,50,54)           104.6874         estimate D2E/DX2                !
 ! A111  A(45,50,59)           109.5728         estimate D2E/DX2                !
 ! A112  A(49,50,54)           106.7362         estimate D2E/DX2                !
 ! A113  A(49,50,59)           115.3837         estimate D2E/DX2                !
 ! A114  A(54,50,59)           106.9196         estimate D2E/DX2                !
 ! A115  A(48,56,64)           106.6883         estimate D2E/DX2                !
 ! A116  A(47,57,65)           108.576          estimate D2E/DX2                !
 ! A117  A(46,58,66)           115.4241         estimate D2E/DX2                !
 ! A118  A(50,59,60)           107.4785         estimate D2E/DX2                !
 ! A119  A(50,59,61)           108.8045         estimate D2E/DX2                !
 ! A120  A(50,59,62)           114.6755         estimate D2E/DX2                !
 ! A121  A(60,59,61)           108.8514         estimate D2E/DX2                !
 ! A122  A(60,59,62)           109.8601         estimate D2E/DX2                !
 ! A123  A(61,59,62)           107.0563         estimate D2E/DX2                !
 ! A124  A(59,62,63)           107.5183         estimate D2E/DX2                !
 ! A125  A(58,66,67)           109.9113         estimate D2E/DX2                !
 ! A126  A(58,66,68)           109.3195         estimate D2E/DX2                !
 ! A127  A(58,66,69)           107.937          estimate D2E/DX2                !
 ! A128  A(67,66,68)           107.5724         estimate D2E/DX2                !
 ! A129  A(67,66,69)           111.4651         estimate D2E/DX2                !
 ! A130  A(68,66,69)           110.6248         estimate D2E/DX2                !
 ! A131  A(66,69,70)           108.3496         estimate D2E/DX2                !
 ! A132  A(66,69,71)           107.857          estimate D2E/DX2                !
 ! A133  A(66,69,72)           115.2324         estimate D2E/DX2                !
 ! A134  A(70,69,71)           105.9738         estimate D2E/DX2                !
 ! A135  A(70,69,72)           108.9536         estimate D2E/DX2                !
 ! A136  A(71,69,72)           110.0641         estimate D2E/DX2                !
 ! A137  A(69,72,73)           108.0686         estimate D2E/DX2                !
 ! A138  A(69,72,74)           108.7203         estimate D2E/DX2                !
 ! A139  A(69,72,75)           114.1062         estimate D2E/DX2                !
 ! A140  A(73,72,74)           106.2005         estimate D2E/DX2                !
 ! A141  A(73,72,75)           108.8773         estimate D2E/DX2                !
 ! A142  A(74,72,75)           110.5428         estimate D2E/DX2                !
 ! A143  A(72,75,76)           111.1354         estimate D2E/DX2                !
 ! A144  A(72,75,77)           109.3104         estimate D2E/DX2                !
 ! A145  A(72,75,78)           115.1432         estimate D2E/DX2                !
 ! A146  A(76,75,77)           105.4489         estimate D2E/DX2                !
 ! A147  A(76,75,78)           108.9418         estimate D2E/DX2                !
 ! A148  A(77,75,78)           106.314          estimate D2E/DX2                !
 ! A149  A(75,78,79)           111.2641         estimate D2E/DX2                !
 ! A150  A(75,78,80)           110.4912         estimate D2E/DX2                !
 ! A151  A(75,78,81)           113.3213         estimate D2E/DX2                !
 ! A152  A(79,78,80)           107.7896         estimate D2E/DX2                !
 ! A153  A(79,78,81)           106.3957         estimate D2E/DX2                !
 ! A154  A(80,78,81)           107.3065         estimate D2E/DX2                !
 ! A155  A(78,81,82)           113.5005         estimate D2E/DX2                !
 ! A156  A(78,81,83)           112.3444         estimate D2E/DX2                !
 ! A157  A(78,81,84)           111.5571         estimate D2E/DX2                !
 ! A158  A(82,81,83)           105.6844         estimate D2E/DX2                !
 ! A159  A(82,81,84)           106.9136         estimate D2E/DX2                !
 ! A160  A(83,81,84)           106.3471         estimate D2E/DX2                !
 ! D1    D(6,1,2,3)            -61.8252         estimate D2E/DX2                !
 ! D2    D(6,1,2,7)            178.9639         estimate D2E/DX2                !
 ! D3    D(6,1,2,15)            57.3362         estimate D2E/DX2                !
 ! D4    D(2,1,6,5)             64.6161         estimate D2E/DX2                !
 ! D5    D(2,1,6,11)           -53.8652         estimate D2E/DX2                !
 ! D6    D(2,1,6,16)          -170.3261         estimate D2E/DX2                !
 ! D7    D(1,2,3,4)             54.732          estimate D2E/DX2                !
 ! D8    D(1,2,3,8)            -64.4744         estimate D2E/DX2                !
 ! D9    D(1,2,3,14)           178.1597         estimate D2E/DX2                !
 ! D10   D(7,2,3,4)            169.8976         estimate D2E/DX2                !
 ! D11   D(7,2,3,8)             50.6912         estimate D2E/DX2                !
 ! D12   D(7,2,3,14)           -66.6747         estimate D2E/DX2                !
 ! D13   D(15,2,3,4)           -68.3285         estimate D2E/DX2                !
 ! D14   D(15,2,3,8)           172.4651         estimate D2E/DX2                !
 ! D15   D(15,2,3,14)           55.0992         estimate D2E/DX2                !
 ! D16   D(1,2,15,27)           55.5534         estimate D2E/DX2                !
 ! D17   D(3,2,15,27)          175.9647         estimate D2E/DX2                !
 ! D18   D(7,2,15,27)          -62.3475         estimate D2E/DX2                !
 ! D19   D(2,3,4,5)            -51.9636         estimate D2E/DX2                !
 ! D20   D(2,3,4,9)             67.4482         estimate D2E/DX2                !
 ! D21   D(2,3,4,13)          -176.421          estimate D2E/DX2                !
 ! D22   D(8,3,4,5)             65.5284         estimate D2E/DX2                !
 ! D23   D(8,3,4,9)           -175.0598         estimate D2E/DX2                !
 ! D24   D(8,3,4,13)           -58.929          estimate D2E/DX2                !
 ! D25   D(14,3,4,5)          -175.9098         estimate D2E/DX2                !
 ! D26   D(14,3,4,9)           -56.498          estimate D2E/DX2                !
 ! D27   D(14,3,4,13)           59.6328         estimate D2E/DX2                !
 ! D28   D(2,3,14,23)         -172.9256         estimate D2E/DX2                !
 ! D29   D(4,3,14,23)          -48.8634         estimate D2E/DX2                !
 ! D30   D(8,3,14,23)           70.574          estimate D2E/DX2                !
 ! D31   D(3,4,5,6)             53.0422         estimate D2E/DX2                !
 ! D32   D(3,4,5,10)           172.2559         estimate D2E/DX2                !
 ! D33   D(3,4,5,12)           -72.7077         estimate D2E/DX2                !
 ! D34   D(9,4,5,6)            -66.4443         estimate D2E/DX2                !
 ! D35   D(9,4,5,10)            52.7694         estimate D2E/DX2                !
 ! D36   D(9,4,5,12)           167.8058         estimate D2E/DX2                !
 ! D37   D(13,4,5,6)           175.5017         estimate D2E/DX2                !
 ! D38   D(13,4,5,10)          -65.2846         estimate D2E/DX2                !
 ! D39   D(13,4,5,12)           49.7518         estimate D2E/DX2                !
 ! D40   D(3,4,13,22)           87.9428         estimate D2E/DX2                !
 ! D41   D(5,4,13,22)          -35.5468         estimate D2E/DX2                !
 ! D42   D(9,4,13,22)         -154.6781         estimate D2E/DX2                !
 ! D43   D(4,5,6,1)            -57.5704         estimate D2E/DX2                !
 ! D44   D(4,5,6,11)            61.3738         estimate D2E/DX2                !
 ! D45   D(4,5,6,16)          -177.7564         estimate D2E/DX2                !
 ! D46   D(10,5,6,1)          -176.0182         estimate D2E/DX2                !
 ! D47   D(10,5,6,11)          -57.074          estimate D2E/DX2                !
 ! D48   D(10,5,6,16)           63.7958         estimate D2E/DX2                !
 ! D49   D(12,5,6,1)            65.8532         estimate D2E/DX2                !
 ! D50   D(12,5,6,11)         -175.2027         estimate D2E/DX2                !
 ! D51   D(12,5,6,16)          -54.3329         estimate D2E/DX2                !
 ! D52   D(4,5,12,21)           85.575          estimate D2E/DX2                !
 ! D53   D(6,5,12,21)          -36.9954         estimate D2E/DX2                !
 ! D54   D(10,5,12,21)        -157.5069         estimate D2E/DX2                !
 ! D55   D(1,6,16,17)         -169.1613         estimate D2E/DX2                !
 ! D56   D(1,6,16,18)          -51.2112         estimate D2E/DX2                !
 ! D57   D(1,6,16,19)           70.2805         estimate D2E/DX2                !
 ! D58   D(5,6,16,17)          -47.6053         estimate D2E/DX2                !
 ! D59   D(5,6,16,18)           70.3448         estimate D2E/DX2                !
 ! D60   D(5,6,16,19)         -168.1635         estimate D2E/DX2                !
 ! D61   D(11,6,16,17)          73.5449         estimate D2E/DX2                !
 ! D62   D(11,6,16,18)        -168.505          estimate D2E/DX2                !
 ! D63   D(11,6,16,19)         -47.0133         estimate D2E/DX2                !
 ! D64   D(2,15,27,26)        -159.4535         estimate D2E/DX2                !
 ! D65   D(2,15,27,28)          80.2757         estimate D2E/DX2                !
 ! D66   D(2,15,27,32)         -41.0912         estimate D2E/DX2                !
 ! D67   D(6,16,19,20)        -174.3143         estimate D2E/DX2                !
 ! D68   D(17,16,19,20)         67.3296         estimate D2E/DX2                !
 ! D69   D(18,16,19,20)        -53.618          estimate D2E/DX2                !
 ! D70   D(29,24,25,26)        -51.0307         estimate D2E/DX2                !
 ! D71   D(29,24,25,30)         71.7548         estimate D2E/DX2                !
 ! D72   D(29,24,25,37)       -174.8626         estimate D2E/DX2                !
 ! D73   D(25,24,29,28)         52.3732         estimate D2E/DX2                !
 ! D74   D(25,24,29,34)        -68.0585         estimate D2E/DX2                !
 ! D75   D(25,24,29,38)        174.9612         estimate D2E/DX2                !
 ! D76   D(24,25,26,27)         51.1162         estimate D2E/DX2                !
 ! D77   D(24,25,26,31)        -66.3791         estimate D2E/DX2                !
 ! D78   D(24,25,26,36)        172.8523         estimate D2E/DX2                !
 ! D79   D(30,25,26,27)        -72.9271         estimate D2E/DX2                !
 ! D80   D(30,25,26,31)        169.5777         estimate D2E/DX2                !
 ! D81   D(30,25,26,36)         48.809          estimate D2E/DX2                !
 ! D82   D(37,25,26,27)        171.6924         estimate D2E/DX2                !
 ! D83   D(37,25,26,31)         54.1972         estimate D2E/DX2                !
 ! D84   D(37,25,26,36)        -66.5715         estimate D2E/DX2                !
 ! D85   D(24,25,37,49)         59.396          estimate D2E/DX2                !
 ! D86   D(26,25,37,49)        -64.2507         estimate D2E/DX2                !
 ! D87   D(30,25,37,49)        177.5019         estimate D2E/DX2                !
 ! D88   D(25,26,27,15)       -175.5688         estimate D2E/DX2                !
 ! D89   D(25,26,27,28)        -54.4853         estimate D2E/DX2                !
 ! D90   D(25,26,27,32)         66.3803         estimate D2E/DX2                !
 ! D91   D(31,26,27,15)        -58.1633         estimate D2E/DX2                !
 ! D92   D(31,26,27,28)         62.9202         estimate D2E/DX2                !
 ! D93   D(31,26,27,32)       -176.2142         estimate D2E/DX2                !
 ! D94   D(36,26,27,15)         62.1512         estimate D2E/DX2                !
 ! D95   D(36,26,27,28)       -176.7653         estimate D2E/DX2                !
 ! D96   D(36,26,27,32)        -55.8997         estimate D2E/DX2                !
 ! D97   D(25,26,36,44)         73.6479         estimate D2E/DX2                !
 ! D98   D(27,26,36,44)       -163.9496         estimate D2E/DX2                !
 ! D99   D(31,26,36,44)        -45.3523         estimate D2E/DX2                !
 ! D100  D(15,27,28,29)        172.7599         estimate D2E/DX2                !
 ! D101  D(15,27,28,33)        -69.7513         estimate D2E/DX2                !
 ! D102  D(15,27,28,35)         49.5781         estimate D2E/DX2                !
 ! D103  D(26,27,28,29)         55.1611         estimate D2E/DX2                !
 ! D104  D(26,27,28,33)        172.6499         estimate D2E/DX2                !
 ! D105  D(26,27,28,35)        -68.0206         estimate D2E/DX2                !
 ! D106  D(32,27,28,29)        -65.9276         estimate D2E/DX2                !
 ! D107  D(32,27,28,33)         51.5612         estimate D2E/DX2                !
 ! D108  D(32,27,28,35)        170.8906         estimate D2E/DX2                !
 ! D109  D(27,28,29,24)        -52.9143         estimate D2E/DX2                !
 ! D110  D(27,28,29,34)         69.0582         estimate D2E/DX2                !
 ! D111  D(27,28,29,38)       -171.0455         estimate D2E/DX2                !
 ! D112  D(33,28,29,24)       -171.7551         estimate D2E/DX2                !
 ! D113  D(33,28,29,34)        -49.7826         estimate D2E/DX2                !
 ! D114  D(33,28,29,38)         70.1137         estimate D2E/DX2                !
 ! D115  D(35,28,29,24)         68.9376         estimate D2E/DX2                !
 ! D116  D(35,28,29,34)       -169.0899         estimate D2E/DX2                !
 ! D117  D(35,28,29,38)        -49.1936         estimate D2E/DX2                !
 ! D118  D(27,28,35,43)        143.985          estimate D2E/DX2                !
 ! D119  D(29,28,35,43)         22.0834         estimate D2E/DX2                !
 ! D120  D(33,28,35,43)        -96.303          estimate D2E/DX2                !
 ! D121  D(24,29,38,39)         58.5086         estimate D2E/DX2                !
 ! D122  D(24,29,38,40)        177.1175         estimate D2E/DX2                !
 ! D123  D(24,29,38,41)        -63.9456         estimate D2E/DX2                !
 ! D124  D(28,29,38,39)       -179.0275         estimate D2E/DX2                !
 ! D125  D(28,29,38,40)        -60.4186         estimate D2E/DX2                !
 ! D126  D(28,29,38,41)         58.5183         estimate D2E/DX2                !
 ! D127  D(34,29,38,39)        -59.6709         estimate D2E/DX2                !
 ! D128  D(34,29,38,40)         58.938          estimate D2E/DX2                !
 ! D129  D(34,29,38,41)        177.875          estimate D2E/DX2                !
 ! D130  D(25,37,49,48)        121.6534         estimate D2E/DX2                !
 ! D131  D(25,37,49,50)       -120.7499         estimate D2E/DX2                !
 ! D132  D(25,37,49,55)         -1.0869         estimate D2E/DX2                !
 ! D133  D(29,38,41,42)         76.5389         estimate D2E/DX2                !
 ! D134  D(39,38,41,42)        -45.2329         estimate D2E/DX2                !
 ! D135  D(40,38,41,42)       -163.0088         estimate D2E/DX2                !
 ! D136  D(50,45,46,47)         58.9462         estimate D2E/DX2                !
 ! D137  D(50,45,46,51)        178.8406         estimate D2E/DX2                !
 ! D138  D(50,45,46,58)        -63.3651         estimate D2E/DX2                !
 ! D139  D(46,45,50,49)        -24.1455         estimate D2E/DX2                !
 ! D140  D(46,45,50,54)       -139.7945         estimate D2E/DX2                !
 ! D141  D(46,45,50,59)        105.8432         estimate D2E/DX2                !
 ! D142  D(45,46,47,48)        -28.3508         estimate D2E/DX2                !
 ! D143  D(45,46,47,52)       -146.1924         estimate D2E/DX2                !
 ! D144  D(45,46,47,57)         98.4417         estimate D2E/DX2                !
 ! D145  D(51,46,47,48)       -145.884          estimate D2E/DX2                !
 ! D146  D(51,46,47,52)         96.2744         estimate D2E/DX2                !
 ! D147  D(51,46,47,57)        -19.0915         estimate D2E/DX2                !
 ! D148  D(58,46,47,48)         93.3416         estimate D2E/DX2                !
 ! D149  D(58,46,47,52)        -24.5            estimate D2E/DX2                !
 ! D150  D(58,46,47,57)       -139.8659         estimate D2E/DX2                !
 ! D151  D(45,46,58,66)       -152.4339         estimate D2E/DX2                !
 ! D152  D(47,46,58,66)         83.7491         estimate D2E/DX2                !
 ! D153  D(51,46,58,66)        -37.1175         estimate D2E/DX2                !
 ! D154  D(46,47,48,49)        -30.8429         estimate D2E/DX2                !
 ! D155  D(46,47,48,53)         87.2951         estimate D2E/DX2                !
 ! D156  D(46,47,48,56)       -153.0551         estimate D2E/DX2                !
 ! D157  D(52,47,48,49)         87.41           estimate D2E/DX2                !
 ! D158  D(52,47,48,53)       -154.4519         estimate D2E/DX2                !
 ! D159  D(52,47,48,56)        -34.8022         estimate D2E/DX2                !
 ! D160  D(57,47,48,49)       -158.5609         estimate D2E/DX2                !
 ! D161  D(57,47,48,53)        -40.4228         estimate D2E/DX2                !
 ! D162  D(57,47,48,56)         79.2269         estimate D2E/DX2                !
 ! D163  D(46,47,57,65)        -59.8262         estimate D2E/DX2                !
 ! D164  D(48,47,57,65)         66.9651         estimate D2E/DX2                !
 ! D165  D(52,47,57,65)       -177.263          estimate D2E/DX2                !
 ! D166  D(47,48,49,37)       -179.6175         estimate D2E/DX2                !
 ! D167  D(47,48,49,50)         63.2254         estimate D2E/DX2                !
 ! D168  D(47,48,49,55)        -57.1982         estimate D2E/DX2                !
 ! D169  D(53,48,49,37)         61.3057         estimate D2E/DX2                !
 ! D170  D(53,48,49,50)        -55.8513         estimate D2E/DX2                !
 ! D171  D(53,48,49,55)       -176.275          estimate D2E/DX2                !
 ! D172  D(56,48,49,37)        -57.4345         estimate D2E/DX2                !
 ! D173  D(56,48,49,50)       -174.5915         estimate D2E/DX2                !
 ! D174  D(56,48,49,55)         64.9848         estimate D2E/DX2                !
 ! D175  D(47,48,56,64)        -62.4944         estimate D2E/DX2                !
 ! D176  D(49,48,56,64)        175.0013         estimate D2E/DX2                !
 ! D177  D(53,48,56,64)         57.1832         estimate D2E/DX2                !
 ! D178  D(37,49,50,45)       -155.2881         estimate D2E/DX2                !
 ! D179  D(37,49,50,54)        -40.8734         estimate D2E/DX2                !
 ! D180  D(37,49,50,59)         77.7505         estimate D2E/DX2                !
 ! D181  D(48,49,50,45)        -36.4023         estimate D2E/DX2                !
 ! D182  D(48,49,50,54)         78.0124         estimate D2E/DX2                !
 ! D183  D(48,49,50,59)       -163.3638         estimate D2E/DX2                !
 ! D184  D(55,49,50,45)         84.701          estimate D2E/DX2                !
 ! D185  D(55,49,50,54)       -160.8843         estimate D2E/DX2                !
 ! D186  D(55,49,50,59)        -42.2604         estimate D2E/DX2                !
 ! D187  D(45,50,59,60)         51.1686         estimate D2E/DX2                !
 ! D188  D(45,50,59,61)        168.884          estimate D2E/DX2                !
 ! D189  D(45,50,59,62)        -71.2858         estimate D2E/DX2                !
 ! D190  D(49,50,59,60)        179.7277         estimate D2E/DX2                !
 ! D191  D(49,50,59,61)        -62.5569         estimate D2E/DX2                !
 ! D192  D(49,50,59,62)         57.2733         estimate D2E/DX2                !
 ! D193  D(54,50,59,60)        -61.7502         estimate D2E/DX2                !
 ! D194  D(54,50,59,61)         55.9651         estimate D2E/DX2                !
 ! D195  D(54,50,59,62)        175.7953         estimate D2E/DX2                !
 ! D196  D(46,58,66,67)        -49.2138         estimate D2E/DX2                !
 ! D197  D(46,58,66,68)         68.6423         estimate D2E/DX2                !
 ! D198  D(46,58,66,69)       -170.972          estimate D2E/DX2                !
 ! D199  D(50,59,62,63)         38.7624         estimate D2E/DX2                !
 ! D200  D(60,59,62,63)        -82.3944         estimate D2E/DX2                !
 ! D201  D(61,59,62,63)        159.5601         estimate D2E/DX2                !
 ! D202  D(58,66,69,70)        -59.7135         estimate D2E/DX2                !
 ! D203  D(58,66,69,71)       -174.0107         estimate D2E/DX2                !
 ! D204  D(58,66,69,72)         62.6035         estimate D2E/DX2                !
 ! D205  D(67,66,69,70)        179.4943         estimate D2E/DX2                !
 ! D206  D(67,66,69,71)         65.1971         estimate D2E/DX2                !
 ! D207  D(67,66,69,72)        -58.1887         estimate D2E/DX2                !
 ! D208  D(68,66,69,70)         59.8497         estimate D2E/DX2                !
 ! D209  D(68,66,69,71)        -54.4475         estimate D2E/DX2                !
 ! D210  D(68,66,69,72)       -177.8333         estimate D2E/DX2                !
 ! D211  D(66,69,72,73)       -168.932          estimate D2E/DX2                !
 ! D212  D(66,69,72,74)        -54.0708         estimate D2E/DX2                !
 ! D213  D(66,69,72,75)         69.8149         estimate D2E/DX2                !
 ! D214  D(70,69,72,73)        -46.9393         estimate D2E/DX2                !
 ! D215  D(70,69,72,74)         67.9219         estimate D2E/DX2                !
 ! D216  D(70,69,72,75)       -168.1923         estimate D2E/DX2                !
 ! D217  D(71,69,72,73)         68.859          estimate D2E/DX2                !
 ! D218  D(71,69,72,74)       -176.2798         estimate D2E/DX2                !
 ! D219  D(71,69,72,75)        -52.394          estimate D2E/DX2                !
 ! D220  D(69,72,75,76)        -66.6978         estimate D2E/DX2                !
 ! D221  D(69,72,75,77)         49.2831         estimate D2E/DX2                !
 ! D222  D(69,72,75,78)        168.8383         estimate D2E/DX2                !
 ! D223  D(73,72,75,76)        172.4983         estimate D2E/DX2                !
 ! D224  D(73,72,75,77)        -71.5208         estimate D2E/DX2                !
 ! D225  D(73,72,75,78)         48.0343         estimate D2E/DX2                !
 ! D226  D(74,72,75,76)         56.2017         estimate D2E/DX2                !
 ! D227  D(74,72,75,77)        172.1826         estimate D2E/DX2                !
 ! D228  D(74,72,75,78)        -68.2622         estimate D2E/DX2                !
 ! D229  D(72,75,78,79)        -53.6025         estimate D2E/DX2                !
 ! D230  D(72,75,78,80)       -173.3001         estimate D2E/DX2                !
 ! D231  D(72,75,78,81)         66.2395         estimate D2E/DX2                !
 ! D232  D(76,75,78,79)       -179.2078         estimate D2E/DX2                !
 ! D233  D(76,75,78,80)         61.0947         estimate D2E/DX2                !
 ! D234  D(76,75,78,81)        -59.3658         estimate D2E/DX2                !
 ! D235  D(77,75,78,79)         67.5954         estimate D2E/DX2                !
 ! D236  D(77,75,78,80)        -52.1022         estimate D2E/DX2                !
 ! D237  D(77,75,78,81)       -172.5626         estimate D2E/DX2                !
 ! D238  D(75,78,81,82)        -68.5564         estimate D2E/DX2                !
 ! D239  D(75,78,81,83)        171.6123         estimate D2E/DX2                !
 ! D240  D(75,78,81,84)         52.2997         estimate D2E/DX2                !
 ! D241  D(79,78,81,82)         54.0266         estimate D2E/DX2                !
 ! D242  D(79,78,81,83)        -65.8046         estimate D2E/DX2                !
 ! D243  D(79,78,81,84)        174.8828         estimate D2E/DX2                !
 ! D244  D(80,78,81,82)        169.1935         estimate D2E/DX2                !
 ! D245  D(80,78,81,83)         49.3623         estimate D2E/DX2                !
 ! D246  D(80,78,81,84)        -69.9503         estimate D2E/DX2                !
 --------------------------------------------------------------------------------
 Trust Radius=3.00D-01 FncErr=1.00D-07 GrdErr=1.00D-06
 Number of steps in this run=    504 maximum allowed number of steps=    504.
 GradGradGradGradGradGradGradGradGradGradGradGradGradGradGradGradGradGrad

 Leave Link  103 at Thu Apr 21 17:46:04 2016, MaxMem= 10737418240 cpu:         0.4
 (Enter /share/apps//g09/l202.exe)
 Stoichiometry    C23H44NO16(1+)
 Framework group  C1[X(C23H44NO16)]
 Deg. of freedom   246
 Full point group                 C1      NOp   1
 Largest Abelian subgroup         C1      NOp   1
 Largest concise Abelian subgroup C1      NOp   1
                         Standard orientation:                         
 ---------------------------------------------------------------------
 Center     Atomic      Atomic             Coordinates (Angstroms)
 Number     Number       Type             X           Y           Z
 ---------------------------------------------------------------------
      1          8           0       -4.365161   -0.751854   -0.736357
      2          6           0       -3.505343    0.331560   -1.027698
      3          6           0       -4.150860    1.632168   -0.538035
      4          6           0       -4.520017    1.548332    0.948329
      5          6           0       -5.357018    0.287926    1.236164
      6          6           0       -4.608595   -0.930507    0.693203
      7          1           0       -3.405240    0.324746   -2.127501
      8          1           0       -5.068483    1.772022   -1.136198
      9          1           0       -3.592532    1.498487    1.541803
     10          1           0       -5.480844    0.192278    2.326595
     11          1           0       -3.640899   -1.008417    1.218818
     12          8           0       -6.684456    0.443529    0.711715
     13          8           0       -5.190226    2.748785    1.330325
     14          8           0       -3.287513    2.765245   -0.776103
     15          8           0       -2.239046    0.232440   -0.393005
     16          6           0       -5.334878   -2.253250    0.853850
     17          1           0       -5.703468   -2.320881    1.893598
     18          1           0       -6.207192   -2.293885    0.178354
     19          8           0       -4.396036   -3.289913    0.558879
     20          1           0       -4.869010   -4.138361    0.568917
     21          1           0       -6.670645    0.175121   -0.226841
     22          1           0       -6.140584    2.596929    1.143171
     23          1           0       -3.735077    3.513127   -0.328958
     24          8           0        1.021515   -2.310763   -1.051874
     25          6           0        0.442273   -2.313658    0.250244
     26          6           0       -0.488384   -1.103598    0.478762
     27          6           0       -1.500760   -0.979199   -0.653372
     28          6           0       -0.785026   -0.926185   -2.007604
     29          6           0        0.129295   -2.155180   -2.159744
     30          1           0       -0.121345   -3.245839    0.439179
     31          1           0        0.138659   -0.194258    0.470609
     32          1           0       -2.191449   -1.840423   -0.635281
     33          1           0       -1.532436   -0.969613   -2.821602
     34          1           0       -0.518937   -3.048965   -2.264463
     35          8           0       -0.048027    0.307703   -2.117371
     36          8           0       -1.168769   -1.226040    1.713764
     37          8           0        1.510131   -2.357229    1.172484
     38          6           0        1.041128   -2.061649   -3.389130
     39          1           0        1.656512   -2.972010   -3.455444
     40          1           0        0.432329   -1.991022   -4.302278
     41          8           0        1.875728   -0.893698   -3.339718
     42          1           0        2.616730   -1.067628   -2.689192
     43          1           0        0.797160    0.077546   -2.623517
     44          1           0       -0.491788   -1.038564    2.397247
     45          8           0        4.935369   -1.015161    1.261052
     46          6           0        4.661394    0.348664    1.385909
     47          6           0        3.507231    0.633968    2.377870
     48          6           0        2.515933   -0.540658    2.443684
     49          6           0        2.447185   -1.266810    1.099639
     50          6           0        3.839960   -1.871208    0.806738
     51          1           0        5.593966    0.809431    1.754829
     52          1           0        2.952633    1.512941    2.013441
     53          1           0        2.868114   -1.269294    3.198567
     54          1           0        3.925471   -2.783825    1.419985
     55          1           0        2.164885   -0.573163    0.292999
     56          8           0        1.209885   -0.067736    2.821372
     57          8           0        3.961428    1.009351    3.677224
     58          8           0        4.337814    0.882976    0.083446
     59          6           0        4.082195   -2.285923   -0.644029
     60          1           0        5.105866   -2.690813   -0.706200
     61          1           0        3.370841   -3.078272   -0.908872
     62          8           0        3.915677   -1.233783   -1.602869
     63          1           0        4.282972   -0.410199   -1.206189
     64          1           0        1.297273    0.312056    3.714543
     65          1           0        4.501954    0.281909    4.039882
     66          6           0        4.630545    2.282901   -0.101635
     67          1           0        4.219812    2.867773    0.740866
     68          1           0        5.724516    2.429598   -0.107136
     69          6           0        4.024334    2.717285   -1.429565
     70          1           0        4.474222    2.110571   -2.231051
     71          1           0        4.340052    3.755793   -1.621653
     72          6           0        2.493006    2.606303   -1.518727
     73          1           0        2.200323    2.752919   -2.571232
     74          1           0        2.197281    1.577669   -1.257909
     75          6           0        1.738511    3.621588   -0.646959
     76          1           0        1.900606    3.422353    0.427031
     77          1           0        2.148361    4.629568   -0.823760
     78          6           0        0.237432    3.716121   -0.912634
     79          1           0        0.031752    3.900465   -1.976435
     80          1           0       -0.203600    4.541561   -0.337606
     81          7           0       -0.509486    2.469185   -0.547222
     82          1           0       -0.287054    1.639495   -1.179427
     83          1           0       -1.554632    2.597309   -0.602206
     84          1           0       -0.304432    2.174701    0.415812
 ---------------------------------------------------------------------
 Rotational constants (GHZ):      0.1395979      0.0590902      0.0556091
 Leave Link  202 at Thu Apr 21 17:46:04 2016, MaxMem= 10737418240 cpu:         0.7
 (Enter /share/apps//g09/l301.exe)
 Standard basis: 6-311+G(d,p) (5D, 7F)
 Ernie: Thresh=  0.10000D-02 Tol=  0.10000D-05 Strict=F.
 There are  1184 symmetry adapted cartesian basis functions of A   symmetry.
 There are  1144 symmetry adapted basis functions of A   symmetry.
  1144 basis functions,  1792 primitive gaussians,  1184 cartesian basis functions
   158 alpha electrons      158 beta electrons
       nuclear repulsion energy      5892.6639668147 Hartrees.
 IExCor= 1009 DFT=T Ex+Corr=PBE1PBE ExCW=0 ScaHFX=  0.250000
 ScaDFX=  0.750000  0.750000  1.000000  1.000000 ScalE2=  1.000000  1.000000
 IRadAn=      0 IRanWt=     -1 IRanGd=            0 ICorTp=0 IEmpDi=131
 NAtoms=   84 NActive=   84 NUniq=   84 SFac= 1.00D+00 NAtFMM=   60 NAOKFM=T Big=T
 Integral buffers will be    131072 words long.
 Raffenetti 2 integral format.
 Two-electron integral symmetry is turned on.
 R6Disp:  Grimme-D3 Dispersion energy=       -0.0857726198 Hartrees.
 Nuclear repulsion after empirical dispersion term =     5892.5781941949 Hartrees.
 Leave Link  301 at Thu Apr 21 17:46:04 2016, MaxMem= 10737418240 cpu:         1.5
 (Enter /share/apps//g09/l302.exe)
 NPDir=0 NMtPBC=     1 NCelOv=     1 NCel=       1 NClECP=     1 NCelD=      1
         NCelK=      1 NCelE2=     1 NClLst=     1 CellRange=     0.0.
 One-electron integrals computed using PRISM.
 NBasis=  1144 RedAO= T EigKep=  1.88D-06  NBF=  1144
 NBsUse=  1142 1.00D-06 EigRej=  9.72D-07 NBFU=  1142
 Precomputing XC quadrature grid using
 IXCGrd= 4 IRadAn=           0 IRanWt=          -1 IRanGd=           0 AccXCQ= 0.00D+00.
 Generated NRdTot=       0 NPtTot=           0 NUsed=           0 NTot=          32
 NSgBfM=  1079  1085  1085  1085  1085 MxSgAt=    84 MxSgA2=    84.
 Leave Link  302 at Thu Apr 21 17:46:08 2016, MaxMem= 10737418240 cpu:        49.4
 (Enter /share/apps//g09/l303.exe)
 DipDrv:  MaxL=1.
 Leave Link  303 at Thu Apr 21 17:46:09 2016, MaxMem= 10737418240 cpu:        21.4
 (Enter /share/apps//g09/l401.exe)
 ExpMin= 4.38D-02 ExpMax= 8.59D+03 ExpMxC= 1.30D+03 IAcc=2 IRadAn=         4 AccDes= 0.00D+00
 Harris functional with IExCor= 1009 and IRadAn=       4 diagonalized for initial guess.
 HarFok:  IExCor= 1009 AccDes= 0.00D+00 IRadAn=         4 IDoV= 1 UseB2=F ITyADJ=14
 ICtDFT=  3500011 ScaDFX=  1.000000  1.000000  1.000000  1.000000
 FoFCou: FMM=F IPFlag=           0 FMFlag=      100000 FMFlg1=        2001
         NFxFlg=           0 DoJE=T BraDBF=F KetDBF=T FulRan=T
         wScrn=  0.000000 ICntrl=     500 IOpCl=  0 I1Cent=   200000004 NGrid=           0
         NMat0=    1 NMatS0=      1 NMatT0=    0 NMatD0=    1 NMtDS0=    0 NMtDT0=    0
 Petite list used in FoFCou.
 Harris En= -2159.71466989268    
 JPrj=0 DoOrth=F DoCkMO=F.
 Leave Link  401 at Thu Apr 21 17:46:23 2016, MaxMem= 10737418240 cpu:       219.8
 (Enter /share/apps//g09/l502.exe)
 Closed shell SCF:
 Using DIIS extrapolation, IDIIS=  1040.
 Integral symmetry usage will be decided dynamically.
 IVT=     4256630 IEndB=     4256630 NGot= 10737418240 MDV= 10734581291
 LenX= 10734581291 LenY= 10733178251
 Requested convergence on RMS density matrix=1.00D-08 within 128 cycles.
 Requested convergence on MAX density matrix=1.00D-06.
 Requested convergence on             energy=1.00D-06.
 No special actions if energy rises.
 Fock matrices will be formed incrementally for  20 cycles.

 Cycle   1  Pass 1  IDiag  1:
 FoFJK:  IHMeth= 1 ICntrl=       0 DoSepK=F KAlg= 0 I1Cent=   0 FoldK=F
 IRaf= 780000000 NMat=   1 IRICut=       1 DoRegI=T DoRafI=F ISym2E= 0.
 FoFCou: FMM=T IPFlag=           0 FMFlag=      100000 FMFlg1=        2001
         NFxFlg=           0 DoJE=F BraDBF=F KetDBF=F FulRan=T
         wScrn=  0.000000 ICntrl=       0 IOpCl=  0 I1Cent=           0 NGrid=           0
         NMat0=    1 NMatS0=      1 NMatT0=    0 NMatD0=    1 NMtDS0=    0 NMtDT0=    0
 Symmetry not used in FoFCou.
 FMM levels:  10  Number of levels for PrismC:   9
 E= -2158.69250706049    
 DIIS: error= 1.28D-02 at cycle   1 NSaved=   1.
 NSaved= 1 IEnMin= 1 EnMin= -2158.69250706049     IErMin= 1 ErrMin= 1.28D-02
 ErrMax= 1.28D-02  0.00D+00 EMaxC= 1.00D-01 BMatC= 1.02D+00 BMatP= 1.02D+00
 IDIUse=3 WtCom= 8.72D-01 WtEn= 1.28D-01
 Coeff-Com:  0.100D+01
 Coeff-En:   0.100D+01
 Coeff:      0.100D+01
 Gap=     0.275 Goal=   None    Shift=    0.000
 GapD=    0.275 DampG=1.000 DampE=0.500 DampFc=0.5000 IDamp=-1.
 Damping current iteration by 5.00D-01
 RMSDP=1.05D-02 MaxDP=2.43D+00              OVMax= 1.44D-01

 Cycle   2  Pass 1  IDiag  1:
 RMSU=  4.95D-03    CP:  1.06D+00
 E= -2158.97557150864     Delta-E=       -0.283064448153 Rises=F Damp=T
 DIIS: error= 3.06D-03 at cycle   2 NSaved=   2.
 NSaved= 2 IEnMin= 2 EnMin= -2158.97557150864     IErMin= 2 ErrMin= 3.06D-03
 ErrMax= 3.06D-03  0.00D+00 EMaxC= 1.00D-01 BMatC= 8.07D-02 BMatP= 1.02D+00
 IDIUse=3 WtCom= 9.69D-01 WtEn= 3.06D-02
 Coeff-Com:  0.592D-01 0.941D+00
 Coeff-En:   0.154D+00 0.846D+00
 Coeff:      0.621D-01 0.938D+00
 Gap=     0.283 Goal=   None    Shift=    0.000
 RMSDP=3.92D-03 MaxDP=1.01D+00 DE=-2.83D-01 OVMax= 8.81D-02

 Cycle   3  Pass 1  IDiag  1:
 RMSU=  2.44D-03    CP:  9.69D-01  7.17D-01
 E= -2159.34256690782     Delta-E=       -0.366995399177 Rises=F Damp=F
 DIIS: error= 3.27D-03 at cycle   3 NSaved=   3.
 NSaved= 3 IEnMin= 3 EnMin= -2159.34256690782     IErMin= 2 ErrMin= 3.06D-03
 ErrMax= 3.27D-03  0.00D+00 EMaxC= 1.00D-01 BMatC= 4.55D-02 BMatP= 8.07D-02
 IDIUse=3 WtCom= 9.67D-01 WtEn= 3.27D-02
 Coeff-Com: -0.675D-01 0.412D+00 0.656D+00
 Coeff-En:   0.000D+00 0.000D+00 0.100D+01
 Coeff:     -0.653D-01 0.398D+00 0.667D+00
 Gap=     0.265 Goal=   None    Shift=    0.000
 RMSDP=1.08D-03 MaxDP=2.53D-01 DE=-3.67D-01 OVMax= 1.81D-02

 Cycle   4  Pass 1  IDiag  1:
 RMSU=  9.71D-04    CP:  9.79D-01  7.75D-01  9.16D-01
 E= -2159.37093251571     Delta-E=       -0.028365607894 Rises=F Damp=F
 DIIS: error= 1.09D-03 at cycle   4 NSaved=   4.
 NSaved= 4 IEnMin= 4 EnMin= -2159.37093251571     IErMin= 4 ErrMin= 1.09D-03
 ErrMax= 1.09D-03  0.00D+00 EMaxC= 1.00D-01 BMatC= 5.92D-03 BMatP= 4.55D-02
 IDIUse=3 WtCom= 9.89D-01 WtEn= 1.09D-02
 Coeff-Com: -0.360D-01 0.123D+00 0.339D+00 0.573D+00
 Coeff-En:   0.000D+00 0.000D+00 0.759D-01 0.924D+00
 Coeff:     -0.356D-01 0.122D+00 0.336D+00 0.577D+00
 Gap=     0.258 Goal=   None    Shift=    0.000
 RMSDP=7.47D-04 MaxDP=2.73D-01 DE=-2.84D-02 OVMax= 6.58D-03

 Cycle   5  Pass 1  IDiag  1:
 RMSU=  2.84D-04    CP:  9.60D-01  7.60D-01  8.87D-01  6.69D-01
 E= -2159.37601195946     Delta-E=       -0.005079443748 Rises=F Damp=F
 DIIS: error= 2.76D-04 at cycle   5 NSaved=   5.
 NSaved= 5 IEnMin= 5 EnMin= -2159.37601195946     IErMin= 5 ErrMin= 2.76D-04
 ErrMax= 2.76D-04  0.00D+00 EMaxC= 1.00D-01 BMatC= 2.50D-04 BMatP= 5.92D-03
 IDIUse=3 WtCom= 9.97D-01 WtEn= 2.76D-03
 Coeff-Com: -0.113D-01 0.257D-01 0.101D+00 0.247D+00 0.637D+00
 Coeff-En:   0.000D+00 0.000D+00 0.000D+00 0.000D+00 0.100D+01
 Coeff:     -0.113D-01 0.257D-01 0.100D+00 0.247D+00 0.638D+00
 Gap=     0.258 Goal=   None    Shift=    0.000
 RMSDP=1.58D-04 MaxDP=3.94D-02 DE=-5.08D-03 OVMax= 1.39D-03

 Cycle   6  Pass 1  IDiag  1:
 RMSU=  7.18D-05    CP:  9.63D-01  7.66D-01  9.10D-01  6.64D-01  7.15D-01
 E= -2159.37619516123     Delta-E=       -0.000183201772 Rises=F Damp=F
 DIIS: error= 6.61D-05 at cycle   6 NSaved=   6.
 NSaved= 6 IEnMin= 6 EnMin= -2159.37619516123     IErMin= 6 ErrMin= 6.61D-05
 ErrMax= 6.61D-05  0.00D+00 EMaxC= 1.00D-01 BMatC= 2.68D-05 BMatP= 2.50D-04
 IDIUse=1 WtCom= 1.00D+00 WtEn= 0.00D+00
 Coeff-Com: -0.403D-02 0.711D-02 0.355D-01 0.102D+00 0.339D+00 0.521D+00
 Coeff:     -0.403D-02 0.711D-02 0.355D-01 0.102D+00 0.339D+00 0.521D+00
 Gap=     0.258 Goal=   None    Shift=    0.000
 RMSDP=3.19D-05 MaxDP=6.70D-03 DE=-1.83D-04 OVMax= 4.30D-04

 Cycle   7  Pass 1  IDiag  1:
 RMSU=  1.69D-05    CP:  9.63D-01  7.66D-01  9.11D-01  6.77D-01  7.26D-01
                    CP:  7.15D-01
 E= -2159.37621499234     Delta-E=       -0.000019831106 Rises=F Damp=F
 DIIS: error= 1.93D-05 at cycle   7 NSaved=   7.
 NSaved= 7 IEnMin= 7 EnMin= -2159.37621499234     IErMin= 7 ErrMin= 1.93D-05
 ErrMax= 1.93D-05  0.00D+00 EMaxC= 1.00D-01 BMatC= 1.65D-06 BMatP= 2.68D-05
 IDIUse=1 WtCom= 1.00D+00 WtEn= 0.00D+00
 Coeff-Com: -0.110D-02 0.153D-02 0.999D-02 0.320D-01 0.120D+00 0.257D+00
 Coeff-Com:  0.581D+00
 Coeff:     -0.110D-02 0.153D-02 0.999D-02 0.320D-01 0.120D+00 0.257D+00
 Coeff:      0.581D+00
 Gap=     0.258 Goal=   None    Shift=    0.000
 RMSDP=1.02D-05 MaxDP=2.36D-03 DE=-1.98D-05 OVMax= 1.33D-04

 Cycle   8  Pass 1  IDiag  1:
 RMSU=  5.53D-06    CP:  9.63D-01  7.65D-01  9.11D-01  6.82D-01  7.33D-01
                    CP:  6.91D-01  7.81D-01
 E= -2159.37621602744     Delta-E=       -0.000001035100 Rises=F Damp=F
 DIIS: error= 6.78D-06 at cycle   8 NSaved=   8.
 NSaved= 8 IEnMin= 8 EnMin= -2159.37621602744     IErMin= 8 ErrMin= 6.78D-06
 ErrMax= 6.78D-06  0.00D+00 EMaxC= 1.00D-01 BMatC= 1.77D-07 BMatP= 1.65D-06
 IDIUse=1 WtCom= 1.00D+00 WtEn= 0.00D+00
 Coeff-Com: -0.917D-05-0.179D-03 0.307D-03 0.261D-02 0.132D-01 0.546D-01
 Coeff-Com:  0.282D+00 0.647D+00
 Coeff:     -0.917D-05-0.179D-03 0.307D-03 0.261D-02 0.132D-01 0.546D-01
 Coeff:      0.282D+00 0.647D+00
 Gap=     0.258 Goal=   None    Shift=    0.000
 RMSDP=2.52D-06 MaxDP=3.26D-04 DE=-1.04D-06 OVMax= 4.11D-05

 Cycle   9  Pass 1  IDiag  1:
 RMSU=  1.80D-06    CP:  9.63D-01  7.65D-01  9.11D-01  6.81D-01  7.34D-01
                    CP:  7.02D-01  8.23D-01  8.41D-01
 E= -2159.37621615771     Delta-E=       -0.000000130271 Rises=F Damp=F
 DIIS: error= 2.17D-06 at cycle   9 NSaved=   9.
 NSaved= 9 IEnMin= 9 EnMin= -2159.37621615771     IErMin= 9 ErrMin= 2.17D-06
 ErrMax= 2.17D-06  0.00D+00 EMaxC= 1.00D-01 BMatC= 1.55D-08 BMatP= 1.77D-07
 IDIUse=1 WtCom= 1.00D+00 WtEn= 0.00D+00
 Coeff-Com:  0.705D-04-0.193D-03-0.571D-03-0.997D-03-0.238D-02 0.766D-02
 Coeff-Com:  0.945D-01 0.316D+00 0.586D+00
 Coeff:      0.705D-04-0.193D-03-0.571D-03-0.997D-03-0.238D-02 0.766D-02
 Coeff:      0.945D-01 0.316D+00 0.586D+00
 Gap=     0.258 Goal=   None    Shift=    0.000
 RMSDP=6.78D-07 MaxDP=7.92D-05 DE=-1.30D-07 OVMax= 1.51D-05

 Cycle  10  Pass 1  IDiag  1:
 RMSU=  4.77D-07    CP:  9.63D-01  7.65D-01  9.11D-01  6.81D-01  7.34D-01
                    CP:  7.05D-01  8.28D-01  8.61D-01  8.56D-01
 E= -2159.37621616859     Delta-E=       -0.000000010880 Rises=F Damp=F
 DIIS: error= 6.58D-07 at cycle  10 NSaved=  10.
 NSaved=10 IEnMin=10 EnMin= -2159.37621616859     IErMin=10 ErrMin= 6.58D-07
 ErrMax= 6.58D-07  0.00D+00 EMaxC= 1.00D-01 BMatC= 1.81D-09 BMatP= 1.55D-08
 IDIUse=1 WtCom= 1.00D+00 WtEn= 0.00D+00
 Coeff-Com:  0.337D-04-0.771D-04-0.316D-03-0.709D-03-0.232D-02-0.989D-03
 Coeff-Com:  0.228D-01 0.104D+00 0.310D+00 0.568D+00
 Coeff:      0.337D-04-0.771D-04-0.316D-03-0.709D-03-0.232D-02-0.989D-03
 Coeff:      0.228D-01 0.104D+00 0.310D+00 0.568D+00
 Gap=     0.258 Goal=   None    Shift=    0.000
 RMSDP=2.49D-07 MaxDP=4.16D-05 DE=-1.09D-08 OVMax= 3.65D-06

 Cycle  11  Pass 1  IDiag  1:
 RMSU=  1.42D-07    CP:  9.63D-01  7.65D-01  9.11D-01  6.81D-01  7.34D-01
                    CP:  7.06D-01  8.33D-01  8.68D-01  8.32D-01  6.75D-01
 E= -2159.37621616982     Delta-E=       -0.000000001236 Rises=F Damp=F
 DIIS: error= 1.21D-07 at cycle  11 NSaved=  11.
 NSaved=11 IEnMin=11 EnMin= -2159.37621616982     IErMin=11 ErrMin= 1.21D-07
 ErrMax= 1.21D-07  0.00D+00 EMaxC= 1.00D-01 BMatC= 1.13D-10 BMatP= 1.81D-09
 IDIUse=1 WtCom= 1.00D+00 WtEn= 0.00D+00
 Coeff-Com:  0.890D-05-0.192D-04-0.101D-03-0.238D-03-0.841D-03-0.932D-03
 Coeff-Com:  0.364D-02 0.236D-01 0.984D-01 0.265D+00 0.611D+00
 Coeff:      0.890D-05-0.192D-04-0.101D-03-0.238D-03-0.841D-03-0.932D-03
 Coeff:      0.364D-02 0.236D-01 0.984D-01 0.265D+00 0.611D+00
 Gap=     0.258 Goal=   None    Shift=    0.000
 RMSDP=7.18D-08 MaxDP=1.79D-05 DE=-1.24D-09 OVMax= 9.78D-07

 Cycle  12  Pass 1  IDiag  1:
 RMSU=  4.81D-08    CP:  9.63D-01  7.65D-01  9.11D-01  6.81D-01  7.34D-01
                    CP:  7.05D-01  8.33D-01  8.70D-01  8.42D-01  7.09D-01
                    CP:  7.55D-01
 E= -2159.37621616974     Delta-E=        0.000000000083 Rises=F Damp=F
 DIIS: error= 4.03D-08 at cycle  12 NSaved=  12.
 NSaved=12 IEnMin=11 EnMin= -2159.37621616982     IErMin=12 ErrMin= 4.03D-08
 ErrMax= 4.03D-08  0.00D+00 EMaxC= 1.00D-01 BMatC= 1.08D-11 BMatP= 1.13D-10
 IDIUse=1 WtCom= 1.00D+00 WtEn= 0.00D+00
 Coeff-Com:  0.265D-06-0.176D-06-0.136D-04-0.332D-04-0.135D-03-0.322D-03
 Coeff-Com: -0.859D-03-0.805D-03 0.107D-01 0.571D-01 0.281D+00 0.653D+00
 Coeff:      0.265D-06-0.176D-06-0.136D-04-0.332D-04-0.135D-03-0.322D-03
 Coeff:     -0.859D-03-0.805D-03 0.107D-01 0.571D-01 0.281D+00 0.653D+00
 Gap=     0.258 Goal=   None    Shift=    0.000
 RMSDP=2.33D-08 MaxDP=6.25D-06 DE= 8.28D-11 OVMax= 2.87D-07

 Cycle  13  Pass 1  IDiag  1:
 RMSU=  1.37D-08    CP:  9.63D-01  7.65D-01  9.11D-01  6.81D-01  7.34D-01
                    CP:  7.05D-01  8.33D-01  8.70D-01  8.45D-01  7.08D-01
                    CP:  7.90D-01  7.22D-01
 E= -2159.37621616970     Delta-E=        0.000000000044 Rises=F Damp=F
 DIIS: error= 1.37D-08 at cycle  13 NSaved=  13.
 NSaved=13 IEnMin=11 EnMin= -2159.37621616982     IErMin=13 ErrMin= 1.37D-08
 ErrMax= 1.37D-08  0.00D+00 EMaxC= 1.00D-01 BMatC= 9.20D-13 BMatP= 1.08D-11
 IDIUse=1 WtCom= 1.00D+00 WtEn= 0.00D+00
 Coeff-Com: -0.417D-06 0.108D-05-0.511D-06-0.177D-05-0.148D-04-0.986D-04
 Coeff-Com: -0.650D-03-0.188D-02-0.976D-03 0.113D-01 0.987D-01 0.317D+00
 Coeff-Com:  0.577D+00
 Coeff:     -0.417D-06 0.108D-05-0.511D-06-0.177D-05-0.148D-04-0.986D-04
 Coeff:     -0.650D-03-0.188D-02-0.976D-03 0.113D-01 0.987D-01 0.317D+00
 Coeff:      0.577D+00
 Gap=     0.258 Goal=   None    Shift=    0.000
 RMSDP=5.88D-09 MaxDP=7.71D-07 DE= 4.37D-11 OVMax= 1.07D-07

 SCF Done:  E(RPBE1PBE) =  -2159.37621617     A.U. after   13 cycles
            NFock= 13  Conv=0.59D-08     -V/T= 2.0043
[...]
 0002771,0.00002984,-0.00000975,0.00007605,-0.00008193,0.00002716,-0.00
 020379,-0.00036036,0.00000556,0.00006873,-0.00001048,-0.00002931,0.000
 04660,0.00006590,-0.00039931,0.00078497,0.00063716,-0.00017146,0.00000
 353,-0.00038104,-0.00006085,0.00017954,-0.00019677,0.00015838,-0.00015
 095,-0.00003713,-0.00004003,0.00001094,-0.00001361,0.00000237,0.000001
 27,-0.00000496,-0.00006034,0.00017590,0.00012710,0.00001496,-0.0000049
 6,-0.00001544,-0.00011425,0.00003476,-0.00021844,0.00001865,-0.0001101
 7,0.00010957,-0.00004887,0.00008502,0.00004523,0.00009649,-0.00000854,
 -0.00010234,0.00012198,0.00001134,-0.00009517,0.00003293,-0.00001172,-
 0.00000791,0.00014924,-0.00012036,-0.00000928,-0.00000102,-0.00003859,
 0.00001223,-0.00000480,-0.00000309,0.00000387,-0.00002317,0.00004882,0
 .00001634,-0.00001308,-0.00000042,0.00001179,-0.00000809,-0.00000029,0
 .00001170,-0.00002101,-0.00002281,-0.00001986,-0.00021805,0.00009028,-
 0.00002570,-0.00008315,-0.00002804,0.00003252,-0.00009818,-0.00000050,
 0.00009854,0.00005225,-0.00001644,-0.00002696,-0.00000683,0.00000046,0
 .00000555,-0.00000151,0.00000758,0.00000792,-0.00005735,0.00004055,0.0
 0004361,0.00001279,-0.00003861,-0.00003814,0.00006099,-0.00000911,0.00
 004510,0.00001133,-0.00000245,0.00000085,0.00004193,-0.00002409,-0.000
 02522,-0.00000688,0.00002090,-0.00000503,-0.00001341,-0.00000239,0.000
 02468,-0.00003425,0.00002848,-0.00006799,0.00001925,-0.00001910,0.0000
 1142,0.00002920,-0.00003557,0.00002004,0.00010888,0.00000397,0.0003690
 2,-0.00001826,-0.00005028,-0.00003689,0.00000899,-0.00010159,-0.000082
 05,-0.00345180,0.00254959,0.00169069,0.00019227,0.00013875,0.00010057,
 0.00023184,0.00062984,-0.00105281,-0.00272221,0.00884192,-0.02326232,-
 0.00058900,-0.00037409,-0.00056710,0.00120111,-0.00044910,0.00027675,-
 0.06706144,0.01291740,-0.03213379,-0.00117956,0.00229369,-0.00822865,0
 .07479064,-0.00131781,0.00083171,0.00020467,0.00156869,-0.00300717,0.0
 0064436,0.00265114,-0.00437245,0.00195564,0.00047918,0.00100494,-0.000
 08235,-0.00018530,-0.00044370,0.00000312,0.00061423,0.00025067,-0.0000
 8157,-0.00006303,-0.00020973,-0.00009321,-0.00028345,0.00042624,-0.000
 23718,0.00000723,0.00002054,0.00006891,-0.00015683,0.00011315,-0.00006
 158,0.00000739,-0.00000684,-0.00006733,-0.00022209,0.00022587,-0.00012
 238,-0.00080247,-0.00023461,-0.00042572,-0.00039885,-0.00868069,-0.004
 30478,-0.00062585,-0.00017903,0.00257226,0.00005183,-0.00018932,-0.000
 18937,-0.00004709,0.00003749,0.00002238,0.00001344,0.00000158,0.000030
 00,-0.00012427,0.00016252,0.00024723,0.00002807,-0.00002712,-0.0000432
 1,0.00013673,-0.00018205,0.00008754,0.00011136,-0.00001821,0.00018310,
 -0.00072536,0.00495079,-0.00296588,-0.00006038,-0.00017708,0.00018164,
 0.00003733,-0.00003641,-0.00028282,-0.00033015,0.00076207,-0.00013723,
 0.00011782,-0.00027989,-0.00276561,-0.00121528,0.00071874,-0.00042353,
 0.00046437,-0.00011311,-0.00006495,0.00003060,-0.00005546,-0.00005453,
 -0.00000772,-0.00023178,0.00014011,-0.00005311,0.00027442,0.00044382,0
 .00005483,-0.00035039,-0.00002445,0.00005758,-0.00007850,-0.00009591,0
 .00069045,-0.00409292,-0.00018762,0.00016483,-0.00038453,0.00027667,0.
 00005631,-0.00038874,0.00034458,-0.00022681,0.00027360,0.00002362,0.00
 005961,-0.00002184,0.00003162,-0.00001583,-0.00002547,0.00000660,0.000
 10250,-0.00034873,-0.00000667,0.00001547,0.00013989,-0.00003802,-0.000
 03608,0.00017497,0.00015637,-0.00008575,0.00023907,-0.00001044,0.00012
 793,-0.00022881,-0.00011671,-0.00027988,0.00004582,0.00025440,-0.00017
 572,-0.00000862,0.00011310,0.00000161,0.00003929,0.00005167,-0.0002336
 5,0.00024172,0.00000242,-0.00001853,0.00012002,-0.00002382,0.00001416,
 0.00000418,-0.00000737,0.00002410,-0.00003934,-0.00003824,0.00002005,0
 .00000054,-0.00003031,0.00001572,-0.00000538,-0.00001762,0.00001838,0.
 00004195,0.00002203,0.00021181,-0.00019040,-0.00010873,0.00013039,0.00
 002860,-0.00005654,0.00031782,-0.00006259,-0.00027934,-0.00008257,0.00
 003069,0.00004755,0.00000948,0.00000013,-0.00001088,0.00000667,-0.0000
 1554,-0.00001783,0.00007983,-0.00016462,-0.00007166,-0.00003612,0.0001
 3741,0.00011542,-0.00011781,0.00002220,0.00003854,-0.00002573,-0.00000
 554,0.00000566,-0.00018000,0.00010293,0.00012596,-0.00001135,-0.000064
 70,0.00001330,0.00004325,-0.00000226,-0.00006970,-0.00006805,-0.000066
 29,0.00020719,-0.00003136,0.00003363,-0.00009932,-0.00001327,0.0000869
 3,-0.00008214,0.00025220,0.00013517,-0.00043732,0.00000739,0.00002703,
 0.00006081,-0.00019908,0.00021117,0.00030424,0.00275704,-0.00223859,-0
 .00124476,0.00001791,0.00013271,-0.00031167,0.00008045,-0.00014934,0.0
 0078551,0.00433075,-0.01097458,0.01893618,-0.00066058,0.00101220,-0.00
 027783,-0.00087951,-0.00002793,0.00014244,0.00974163,-0.09965735,0.096
 10911,-0.00201067,0.01853639,-0.02313554,-0.01484847,0.11236381,0.0006
 6122,-0.00038614,-0.00238076,-0.00049840,0.00007663,0.00633919,-0.0088
 9415,0.00897943,0.00343219,-0.00044888,-0.00178102,0.00000807,0.000201
 25,0.00122496,0.00038399,-0.00035575,-0.00009669,0.00075184,0.00007896
 ,0.00014406,-0.00031358,0.00193957,-0.00262768,0.00043798,-0.00006461,
 0.00015902,0.00010831,0.00034662,-0.00029011,0.00004115,0.00010667,-0.
 00003146,0.00014484,0.00066246,-0.00083246,-0.00003993,0.00157531,-0.0
 0016321,0.00042624,0.00651419,-0.00721500,0.00265421,-0.00117944,0.002
 56187,-0.00459074,-0.00018213,0.00036114,0.00036072,-0.00001189,-0.000
 03658,-0.00004387,-0.00002059,0.00003887,-0.00005533,0.00014723,-0.000
 35033,-0.00061642,-0.00003410,0.00003842,0.00003654,-0.00033207,0.0005
 3860,0.00005215,-0.00030555,0.00004443,-0.00043054,0.00034415,-0.00372
 718,-0.00144457,-0.00010767,0.00017873,-0.00009156,0.00008026,0.000075
 75,-0.00002328,0.00098937,-0.00078018,0.00021416,0.00018903,0.00014921
 ,0.00062746,0.00137535,-0.00183714,0.00042548,-0.00031805,0.00017066,-
 0.00011035,-0.00005172,0.00009110,0.00011365,-0.00006595,0.00036333,-0
 .00034406,-0.00005684,0.00002082,0.00011382,-0.00000195,0.00039582,-0.
 00000521,-0.00010122,0.00011249,0.00016003,-0.00021741,0.00307383,0.00
 196441,-0.00067683,0.00028010,-0.00041277,-0.00016919,0.00027129,-0.00
 015224,0.00020185,-0.00047895,-0.00000468,-0.00005859,0.00004535,0.000
 01881,0.00001278,0.00002475,-0.00003175,0.00000269,0.00060764,0.000505
 52,0.00001431,-0.00007007,-0.00009760,-0.00054089,0.00005891,-0.000732
 03,0.00018267,-0.00019091,0.00004142,-0.00020389,0.00026712,0.00023348
 ,0.00050041,0.00000147,-0.00043679,0.00033547,0.00012444,-0.00022537,0
 .00006329,-0.00006401,-0.00006674,0.00030901,-0.00017692,-0.00005122,0
 .00001406,-0.00013852,-0.00000645,-0.00001618,-0.00002087,0.00001310,-
 0.00002583,0.00007609,0.00006948,-0.00004557,0.00000018,0.00005188,-0.
 00002750,0.00000669,0.00002678,-0.00004608,-0.00005597,-0.00002701,-0.
 00042868,0.00015789,0.00009297,-0.00029645,-0.00018317,0.00010355,-0.0
 0057908,0.00005680,0.00048241,0.00017747,-0.00005018,-0.00013340,-0.00
 001685,-0.00001268,0.00003984,-0.00000797,0.00002131,-0.00000630,-0.00
 017649,0.00018511,0.00023514,0.00004446,-0.00018092,-0.00019572,0.0002
 0415,-0.00000584,0.00005763,0.00006113,0.00003324,-0.00001523,0.000310
 57,-0.00017473,-0.00025525,0.00005257,0.00013688,-0.00005008,-0.000063
 43,0.00000557,0.00014091,-0.00001042,0.00026836,-0.00008104,0.00001913
 ,-0.00003121,0.00023293,-0.00006136,-0.00005610,-0.00001005,-0.0002018
 4,-0.00046069,-0.00022283,-0.00000955,0.00003412,0.00000278,0.00005495
 ,0.00000508,-0.00015798,0.00318278,-0.00258899,-0.00072857,-0.00013778
 ,0.00028299,-0.00017629,0.00048704,-0.00083182,0.00125401,-0.00624811,
 0.00131537,0.01089207,0.00061435,-0.00026968,0.00021386,0.00066549,-0.
 00135830,0.00054003,-0.02618717,0.10049829,-0.29372769,-0.00203000,0.0
 0241341,-0.02123015,0.02852812,-0.09920641,0.30130073,-0.00019839,-0.0
 0000236,0.00009635,0.00019743,-0.00010889,-0.00018858,0.00051253,-0.00
 047983,-0.00007924,0.00019752,0.00024756,-0.00029082,-0.00008628,0.000
 00956,-0.00003630,0.00013952,0.00008898,-0.00004449,-0.00004619,-0.000
 10490,0.00005426,-0.00011059,0.00009566,-0.00001547,-0.00010365,-0.000
 01903,-0.00006078,-0.00003235,0.00001907,-0.00001582,-0.00001106,0.000
 04028,-0.00001008,-0.00003424,-0.00007155,0.00008611,-0.00013992,-0.00
 003328,0.00012319,-0.00074029,0.00066657,-0.00105730,-0.00047048,-0.00
 000291,0.00012777,-0.00001595,-0.00000147,-0.00000414,-0.00000979,0.00
 000821,-0.00000236,0.00000326,-0.00001626,0.00000542,-0.00001799,-0.00
 003591,0.00000802,0.00000660,0.00001276,0.00000329,0.00002830,-0.00000
 774,-0.00000323,0.00000818,0.00000435,0.00001071,0.00003885,0.00010767
 ,-0.00000420,-0.00039668,-0.00019120,-0.00009363,0.00040993,-0.0000508
 8,0.00040347,0.00000890,0.00071093,0.00014238,0.00027813,-0.00001840,-
 0.00006926,0.00063157,-0.00050238,0.00015420,0.00005830,0.00022018,-0.
 00018406,-0.00002011,-0.00000812,-0.00009943,0.00040644,0.00033366,0.0
 0054458,-0.00007866,-0.00002740,0.00001707,-0.00010933,0.00009760,-0.0
 0001905,-0.00003491,0.00001024,0.00005810,-0.00022822,0.00114921,0.000
 59665,-0.00018456,-0.00062681,-0.00052401,-0.00018663,0.00000715,-0.00
 011751,0.00008858,-0.00015581,0.00002183,-0.00001471,0.00002089,0.0000
 0779,-0.00001751,0.00000009,-0.00001084,-0.00006651,0.00015726,0.00017
 900,0.00006012,0.00002446,-0.00006131,-0.00010472,-0.00002599,-0.00027
 080,-0.00035338,0.00028771,0.00033837,-0.00017188,0.00007610,0.0000006
 8,0.00044716,0.00011217,-0.00009924,0.00005121,-0.00006069,-0.00009697
 ,0.00043617,0.00004313,0.00081340,0.00017037,0.00004088,-0.00003664,0.
 00003502,-0.00010956,0.00008456,-0.00004263,-0.00001312,-0.00002302,0.
 00008066,0.00000649,0.00003481,-0.00004984,0.00002634,-0.00020405,-0.0
 0001426,0.00000654,0.00000830,0.00004587,-0.00002789,-0.00000736,0.000
 09816,-0.00009407,-0.00118421,-0.00014643,0.00006199,-0.00008038,-0.00
 045689,0.00002121,0.00023628,0.00014797,0.00001169,-0.00008648,-0.0000
 3341,-0.00001099,0.00000213,-0.00000124,0.00001294,0.00001260,-0.00018
 109,0.00003551,0.00008142,0.00005670,-0.00005627,-0.00005626,-0.000154
 71,-0.00010655,0.00015743,0.00002734,-0.00004447,0.00004020,0.00021264
 ,-0.00011296,-0.00014487,0.00001879,0.00004423,-0.00002384,-0.00003626
 ,0.00001145,0.00005073,0.00010545,0.00007430,-0.00009827,0.00000814,-0
 .00002336,0.00009023,-0.00002561,-0.00003561,0.00004308,-0.00027083,-0
 .00013231,-0.00012516,0.00009953,0.00003084,0.00011514,-0.00000868,-0.
 00012760,-0.00030112,0.00158982,-0.00087210,-0.00047114,0.00010160,0.0
 0084921,-0.00096911,0.00053985,-0.00018340,0.00054126,-0.02299437,-0.0
 0825699,0.00620417,-0.00121308,0.00419440,0.00008276,0.00097381,-0.000
 20100,0.00031545,-0.33243352,-0.12665430,0.08749267,-0.00608701,-0.003
 72795,0.00164960,0.00577173,0.00112631,0.00026369,0.35404268,-0.000303
 50,0.00044742,-0.00050419,-0.00040259,-0.00046601,0.00144852,-0.000246
 56,0.00019674,0.00022795,0.00001665,0.00000037,0.00026700,0.00003113,-
 0.00000477,0.00006269,0.00020560,0.00000752,0.00013627,0.00008985,0.00
 019024,-0.00016184,0.00003356,-0.00005666,-0.00005784,0.00010253,0.000
 10386,0.00008970,-0.00000803,-0.00000176,-0.00001171,0.00003588,-0.000
 03047,0.00001301,-0.00000230,0.00001408,-0.00012916,-0.00000881,-0.000
 12969,-0.00023609,0.00050919,-0.00026755,0.00029802,0.00041063,0.00149
 980,-0.00112563,0.00002314,-0.00002125,0.00000295,-0.00002222,-0.00000
 073,-0.00000013,0.00000086,0.00001718,-0.00000248,-0.00004698,0.000042
 59,-0.00001198,0.00000913,-0.00001330,-0.00001950,-0.00000027,-0.00000
 570,0.00006024,0.00001509,0.00000871,0.00001202,0.00007521,0.00006483,
 0.00004107,0.00021720,0.00008936,0.00025050,-0.00041413,0.00058805,-0.
 00112568,0.00128974,-0.00124088,0.00099453,-0.00004339,-0.00065121,-0.
 00061310,-0.00045853,0.00007791,-0.00032681,0.00011424,-0.00026219,0.0
 0004916,-0.00002501,0.00005294,0.00027774,-0.00005126,0.00062657,-0.00
 121722,0.00005676,0.00016744,0.00005585,0.00004889,0.00001193,0.000011
 90,0.00001827,-0.00001831,-0.00005519,0.00097658,-0.00096369,-0.000805
 48,-0.00079780,0.00001556,0.00007386,0.00007310,-0.00049412,0.00044561
 ,-0.00013929,0.00010707,-0.00002380,0.00002631,-0.00000897,0.00002284,
 0.00000766,-0.00000995,0.00000046,0.00007933,-0.00015127,0.00007837,-0
 .00001256,0.00009623,-0.00007457,0.00003638,0.00002517,-0.00019994,0.0
 0021208,0.00033907,-0.00025544,0.00007855,-0.00030184,-0.00009369,-0.0
 0002647,0.00013649,0.00021612,-0.00025025,0.00012064,0.00018212,0.0001
 1613,0.00007159,0.00015151,-0.00001832,0.00035824,-0.00013418,-0.00011
 115,0.00016921,-0.00007077,0.00000240,-0.00001497,-0.00000014,0.000098
 16,-0.00004819,-0.00000250,-0.00000576,-0.00002893,-0.00005530,0.00001
 344,-0.00000848,0.00001414,-0.00006343,0.00001039,-0.00006860,0.000268
 52,-0.00055542,-0.00031830,0.00007470,-0.00008173,-0.00010269,0.000109
 21,-0.00016218,-0.00015093,-0.00003027,0.00000665,-0.00000745,0.000009
 20,-0.00000469,0.00001044,-0.00000440,-0.00001883,-0.00003190,0.000042
 31,-0.00012864,0.00002378,-0.00002750,0.00012890,0.00004472,-0.0002655
 9,0.00006413,0.00021760,-0.00000353,0.00001244,0.00000394,-0.00003440,
 0.00016987,0.00013541,-0.00003057,-0.00007570,-0.00001635,-0.00000351,
 -0.00003040,-0.00003352,0.00004934,-0.00008658,0.00000501,-0.00001583,
 0.00000164,-0.00004145,0.00002552,-0.00000918,0.00002145,-0.00034694,0
 .00006018,0.00045126,-0.00010003,-0.00016852,-0.00021175,0.00004371,0.
 00001571,-0.00007617,0.00091253,0.00237602,-0.00098308,-0.00118820,-0.
 00074176,0.00065439,-0.00047553,-0.00012681,-0.00018750,0.02521763,0.0
 1352063,-0.00799009,0.00405970,-0.00387404,0.00008770,-0.00003650,0.00
 037415,-0.00062988,-0.12571770,-0.11505615,0.04018476,-0.02358550,-0.0
 0757951,0.01262342,-0.01274800,-0.00592517,0.00078452,0.13223654,0.117
 43871,0.00011970,-0.00020293,-0.00010846,0.00001817,0.00016492,-0.0000
 3601,-0.00016161,0.00035033,-0.00031308,0.00024356,0.00029308,-0.00040
 144,-0.00016388,0.00017313,0.00004453,-0.00000839,-0.00001023,0.000078
 66,-0.00003899,-0.00005378,0.00002241,-0.00001982,-0.00007370,0.000022
 49,-0.00027705,-0.00000966,0.00002590,0.00000533,0.00000071,0.00000333
 ,-0.00001637,0.00001070,0.00007559,0.00007648,-0.00023250,0.00005282,0
 .00003850,-0.00015027,0.00019140,-0.00109433,-0.00050942,-0.00054751,0
 .00022783,-0.00089182,-0.00072678,-0.00004969,0.00006964,0.00010275,-0
 .00000480,-0.00000571,-0.00000927,0.00000238,-0.00000115,-0.00001658,0
 .00003212,-0.00006614,-0.00014033,-0.00000877,0.00000344,0.00001123,-0
 .00001155,0.00005127,0.00001226,-0.00003974,0.00002111,-0.00003506,0.0
 0008835,0.00028613,-0.00044265,0.00030895,0.00030364,-0.00002245,-0.00
 047884,0.00016122,-0.00037547,0.00161448,-0.00124156,0.00091896,-0.000
 48268,0.00003758,0.00106797,-0.00013195,-0.00006665,-0.00046117,-0.000
 17564,-0.00033262,0.00023546,-0.00002961,0.00007993,0.00019520,0.00000
 965,-0.00000319,-0.00062721,0.00011867,-0.00000575,-0.00020555,0.00005
 640,0.00004545,0.00001021,0.00001605,0.00001672,-0.00005969,0.00067542
 ,-0.00091128,-0.00114639,-0.00076299,0.00013740,-0.00056079,-0.0000254
 9,0.00022609,-0.00002843,0.00003938,-0.00001797,-0.00001016,-0.0000204
 1,-0.00000761,-0.00001175,0.00002296,0.00001229,0.00000094,-0.00000037
 ,0.00006716,-0.00016771,-0.00008433,-0.00011176,0.00006803,0.00008638,
 -0.00015705,0.00012691,0.00021139,-0.00012687,0.00010251,0.00003366,0.
 00007271,0.00014595,-0.00009040,-0.00003119,-0.00019207,0.00032602,0.0
 0012509,-0.00025282,0.00002455,-0.00003194,-0.00043283,0.00031429,-0.0
 0010551,-0.00008560,-0.00010232,0.00000575,-0.00008238,0.00001546,-0.0
 0001006,0.00003221,-0.00011668,0.00016083,0.00005704,-0.00002953,-0.00
 001629,0.00010100,-0.00000217,-0.00000216,0.00003989,-0.00016451,-0.00
 009745,-0.00008018,-0.00071704,0.00003801,0.00025797,-0.00016016,-0.00
 020539,0.00015112,0.00012811,-0.00006013,0.00014968,-0.00004008,-0.000
 04123,-0.00000928,0.00002009,0.00000483,0.00001700,-0.00000799,0.00000
 009,-0.00000725,0.00009760,0.00010124,0.00004425,-0.00004366,-0.000067
 60,-0.00007703,0.00010843,0.00007028,0.00022954,0.00000407,0.00002609,
 -0.00002843,-0.00014286,0.00009589,-0.00003925,0.00001270,0.00004265,-
 0.00000375,0.00002045,-0.00000465,0.00003454,0.00012509,-0.00006100,-0
 .00013083,0.00000350,0.00000669,0.00000517,0.00002425,-0.00004064,0.00
 005650,-0.00026191,0.00023428,-0.00007378,0.00024440,0.00000920,0.0000
 6660,0.00001522,-0.00032324,-0.00027236,-0.00208308,-0.00101506,0.0009
 4107,0.00070620,0.00052330,0.00015494,0.00033757,0.00011938,-0.0002226
 5,-0.00102188,-0.00160387,0.00001926,-0.00087922,0.00024762,0.00030992
 ,0.00075921,-0.00012254,-0.00052012,0.08531906,0.03963212,-0.08247157,
 -0.02183992,-0.00588008,0.00980464,0.03316695,0.01345029,-0.00562037,-
 0.09402834,-0.04256857,0.08106863\\0.00001165,-0.00003049,0.00000570,-
 0.00002163,0.00001968,-0.00001129,-0.00002218,0.00002635,-0.00000180,-
 0.00000423,-0.00000222,0.00001510,-0.00001143,-0.00001048,-0.00000807,
 -0.00000125,0.00001342,-0.00000455,0.00001035,-0.00000580,-0.00000552,
 -0.00000700,-0.00001065,-0.00000738,0.00000250,-0.00000724,0.00000204,
 -0.00000699,0.00000503,0.00000534,0.00000318,-0.00000054,0.00000922,0.
 00001324,0.00000181,0.00000894,-0.00001115,-0.00000075,-0.00001522,0.0
 0000512,-0.00002189,-0.00001454,0.00001525,-0.00000270,-0.00000885,0.0
 0000123,-0.00000625,0.00002129,-0.00000563,0.00000101,-0.00000139,0.00
 000135,-0.00000163,0.00000089,-0.00000226,0.00001334,-0.00001723,0.000
 00410,-0.00000216,0.00000868,-0.00001638,-0.00000109,-0.00000762,-0.00
 000429,-0.00001268,0.00000415,0.00000273,-0.00000533,0.00000540,0.0000
 1122,0.00001968,-0.00001864,0.00000876,-0.00003463,0.00000552,-0.00002
 544,0.00001381,-0.00000242,-0.00002372,-0.00000387,0.00002405,-0.00000
 183,0.00001290,-0.00001580,0.00001607,-0.00002524,0.00003008,0.0000041
 2,-0.00000184,0.00001167,0.00000420,-0.00000554,-0.00000183,0.00000509
 ,0.00000327,-0.00000348,0.00000415,-0.00000686,-0.00000973,0.00000317,
 0.00000652,-0.00000348,0.00002416,0.00001631,0.00002749,0.00001734,0.0
 0000434,0.00000955,-0.00000851,0.00002988,-0.00000234,-0.00000607,0.00
 001782,-0.00002288,0.00000265,0.00000378,-0.00001082,0.00001191,0.0000
 0063,-0.00000583,-0.00002725,-0.00004607,0.00001767,0.00003433,0.00001
 303,-0.00001482,-0.00000650,0.00000780,-0.00001788,0.00000560,0.000016
 08,-0.00000225,-0.00000140,-0.00001695,-0.00000039,0.00000839,0.000027
 81,-0.00001178,-0.00000117,0.00000973,0.00000659,0.00001008,-0.0000068
 1,-0.00001009,0.00000340,-0.00002706,0.00002190,0.00000426,0.00003604,
 -0.00001718,0.00000509,0.00000526,0.00001372,-0.00000385,0.00000473,0.
 00000431,0.00000409,0.00001374,0.00001056,0.00000804,0.00000805,0.0000
 0672,0.00000257,0.00000138,0.00000076,-0.00002028,-0.00000585,0.000020
 24,-0.00002243,-0.00000112,0.00000270,0.00001202,-0.00000526,0.0000250
 8,0.00000988,-0.00000712,-0.00000230,0.00000784,-0.00000020,-0.0000018
 5,0.00000809,0.00000922,-0.00000447,0.00000071,0.00000049,-0.00001757,
 -0.00001119,0.00002037,0.00000908,0.00000767,0.00000016,0.00000180,0.0
 0000043,-0.00000194,0.00000119,0.00001335,-0.00000725,-0.00001405,-0.0
 0000345,-0.00000078,0.00000018,0.00000571,0.00000474,-0.00000276,-0.00
 001269,0.00000673,0.00000348,0.00000077,-0.00000010,-0.00000037,-0.000
 00200,-0.00000235,-0.00000585,0.00001073,-0.00002072,-0.00001570,0.000
 00051,0.00000008,-0.00000230,-0.00000394,0.00000017,0.00000059,0.00000
 141,0.00000113,0.00000932,-0.00000574,-0.00000939,-0.00000071,-0.00000
 634,-0.00000399,0.00000289,-0.00003201,0.00001906,-0.00001025,0.000003
 27,-0.00001062,0.00000236,-0.00000207,-0.00000405,-0.00000176,0.000022
 55,-0.00002855,-0.00002200,-0.00001651,-0.00000224,-0.00001193,-0.0000
 1033,-0.00001465,0.00003091,-0.00000518,0.00000757,0.00000178\\\@


 WAR ES EIN GOTT DER DIESE ZEICHEN SCHRIEB?
          - LUDWIG BOLTZMANN, QUOTING GOETHE, ABOUT MAXWELL'S EQUATIONS.
 Job cpu time:      20 days 20 hours 54 minutes 20.0 seconds.
 File lengths (MBytes):  RWF=  23950 Int=      0 D2E=      0 Chk=     97 Scr=      1
 Normal termination of Gaussian 09 at Sun Apr 24 15:29:32 2016.
