 Entering Gaussian System, Link 0=g09
 Initial command:
 /share/apps//g09/l1.exe "/scratch/Gau-2625.inp" -scrdir="/scratch/"
 Entering Link 1 = /share/apps//g09/l1.exe PID=      2627.
  
 Copyright (c) 1988,1990,1992,1993,1995,1998,2003,2009,2013,
            Gaussian, Inc.  All Rights Reserved.
  
 This is part of the Gaussian(R) 09 program.  It is based on
 the Gaussian(R) 03 system (copyright 2003, Gaussian, Inc.),
 the Gaussian(R) 98 system (copyright 1998, Gaussian, Inc.),
 the Gaussian(R) 94 system (copyright 1995, Gaussian, Inc.),
 the Gaussian 92(TM) system (copyright 1992, Gaussian, Inc.),
 the Gaussian 90(TM) system (copyright 1990, Gaussian, Inc.),
 the Gaussian 88(TM) system (copyright 1988, Gaussian, Inc.),
 the Gaussian 86(TM) system (copyright 1986, Carnegie Mellon
 University), and the Gaussian 82(TM) system (copyright 1983,
 Carnegie Mellon University). Gaussian is a federally registered
 trademark of Gaussian, Inc.
  
 This software contains proprietary and confidential information,
 including trade secrets, belonging to Gaussian, Inc.
  
 This software is provided under written license and may be
 used, copied, transmitted, or stored only in accord with that
 written license.
  
 The following legend is applicable only to US Government
 contracts under FAR:
  
                    RESTRICTED RIGHTS LEGEND
  
 Use, reproduction and disclosure by the US Government is
 subject to restrictions as set forth in subparagraphs (a)
 and (c) of the Commercial Computer Software - Restricted
 Rights clause in FAR 52.227-19.
  
 Gaussian, Inc.
 340 Quinnipiac St., Bldg. 40, Wallingford CT 06492
  
  
 ---------------------------------------------------------------
 Warning -- This program may not be used in any manner that
 competes with the business of Gaussian, Inc. or will provide
 assistance to any competitor of Gaussian, Inc.  The licensee
 of this program is prohibited from giving any competitor of
 Gaussian, Inc. access to this program.  By using this program,
 the user acknowledges that Gaussian, Inc. is engaged in the
 business of creating and licensing software in the field of
 computational chemistry and represents and warrants to the
 licensee that it is not a competitor of Gaussian, Inc. and that
 it will not use this program in any manner prohibited above.
 ---------------------------------------------------------------
  

 Cite this work as:
 Gaussian 09, Revision D.01,
 M. J. Frisch, G. W. Trucks, H. B. Schlegel, G. E. Scuseria, 
 M. A. Robb, J. R. Cheeseman, G. Scalmani, V. Barone, B. Mennucci, 
 G. A. Petersson, H. Nakatsuji, M. Caricato, X. Li, H. P. Hratchian, 
 A. F. Izmaylov, J. Bloino, G. Zheng, J. L. Sonnenberg, M. Hada, 
 M. Ehara, K. Toyota, R. Fukuda, J. Hasegawa, M. Ishida, T. Nakajima, 
 Y. Honda, O. Kitao, H. Nakai, T. Vreven, J. A. Montgomery, Jr., 
 J. E. Peralta, F. Ogliaro, M. Bearpark, J. J. Heyd, E. Brothers, 
 K. N. Kudin, V. N. Staroverov, T. Keith, R. Kobayashi, J. Normand, 
 K. Raghavachari, A. Rendell, J. C. Burant, S. S. Iyengar, J. Tomasi, 
 M. Cossi, N. Rega, J. M. Millam, M. Klene, J. E. Knox, J. B. Cross, 
 V. Bakken, C. Adamo, J. Jaramillo, R. Gomperts, R. E. Stratmann, 
 O. Yazyev, A. J. Austin, R. Cammi, C. Pomelli, J. W. Ochterski, 
 R. L. Martin, K. Morokuma, V. G. Zakrzewski, G. A. Voth, 
 P. Salvador, J. J. Dannenberg, S. Dapprich, A. D. Daniels, 
 O. Farkas, J. B. Foresman, J. V. Ortiz, J. Cioslowski, 
 and D. J. Fox, Gaussian, Inc., Wallingford CT, 2013.
 
 ******************************************
 Gaussian 09:  EM64L-G09RevD.01 24-Apr-2013
                 6-Apr-2016 
 ******************************************
 %nproc=20
 Will use up to   20 processors via shared memory.
 %mem=80GB
 %chk=Tri_A131_of.chk
 ----------------------------------------------------------------------
 #P PBE1PBE/6-311+G(d,p) opt=ModRedundant freq optcyc=999 EmpiricalDisp
 ersion=GD3
 ----------------------------------------------------------------------
 1/6=999,14=-1,18=120,19=15,26=3,38=1/1,3;
 2/9=110,12=2,17=6,18=5,40=1/2;
 3/5=4,6=6,7=111,11=2,16=1,25=1,30=1,71=1,74=-13,124=31/1,2,3;
 4//1;
 5/5=2,38=5/2;
 6/7=2,8=2,9=2,10=2,28=1/1;
 7//1,2,3,16;
 1/6=999,14=-1,18=20,19=15,26=3/3(2);
 2/9=110/2;
 99//99;
 2/9=110/2;
 3/5=4,6=6,7=111,11=2,16=1,25=1,30=1,71=1,74=-13,124=31/1,2,3;
 4/5=5,16=3,69=1/1;
 5/5=2,38=5/2;
 7//1,2,3,16;
 1/6=999,14=-1,18=20,19=15,26=3/3(-5);
 2/9=110/2;
 6/7=2,8=2,9=2,10=2,19=2,28=1/1;
 99/9=1/99;
 Leave Link    1 at Wed Apr  6 15:55:04 2016, MaxMem= 10737418240 cpu:         2.4
 (Enter /share/apps//g09/l101.exe)
 -------
 disacch
 -------
 Symbolic Z-matrix:
 Charge =  1 Multiplicity = 1
 O                     2.24701  -1.22495   4.87722 
 C                     2.51681  -2.25144   5.82417 
 C                     3.98018  -2.67985   5.73787 
 C                     4.90896  -1.4804    5.96779 
 C                     4.55326  -0.34512   4.98758 
 C                     3.05053  -0.03214   5.08567 
 H                     1.85482  -3.08171   5.5385 
 H                     4.14217  -3.06945   4.71639 
 H                     4.77493  -1.12113   6.99991 
 H                     5.11991   0.55516   5.28244 
 H                     2.8542    0.34897   6.10429 
 O                     4.95679  -0.78867   3.67975 
 O                     6.27024  -1.87805   5.85665 
 O                     4.17754  -3.71491   6.70222 
 O                     2.27521  -1.81691   7.15647 
 C                     2.53968   0.99277   4.09307 
 H                     3.18364   1.8901    4.14352 
 H                     2.58596   0.57384   3.07355 
 O                     1.19158   1.29911   4.47254 
 H                     0.8146    1.89738   3.80626 
 H                     5.30783  -0.0331    3.18116 
 H                     6.45769  -1.9275    4.89672 
 H                     5.14111  -3.83092   6.80453 
 O                    -1.68592  -2.99731   8.03647 
 C                    -0.5927   -3.7409    8.6362 
 C                     0.64466  -3.55913   7.74384 
 C                     0.98836  -2.06752   7.73365 
 C                    -0.16407  -1.25378   7.11493 
 C                    -1.4705   -1.57791   7.87047 
 H                    -0.38826  -3.36444   9.65532 
 H                     0.36636  -3.88855   6.72599 
 H                     1.121    -1.72993   8.77617 
 H                     0.04492  -0.17836   7.25675 
 H                    -1.3952   -1.10747   8.87113 
 O                    -0.33459  -1.5256    5.714 
 O                     1.6999   -4.36345   8.26204 
 O                    -1.00968  -5.0591    8.82814 
 C                    -2.71845  -1.00448   7.19032 
 H                    -3.60954  -1.26069   7.78119 
 H                    -2.6297    0.09603   7.1807 
 O                    -2.93236  -1.49572   5.85923 
 H                    -2.03752  -1.43862   5.43479 
 H                     0.42645  -1.11778   5.22974 
 H                     2.55727  -4.03818   7.89923 
 O                    -3.41593  -6.90674   6.73327 
 C                    -2.5388   -7.28012   5.70519 
 C                    -1.19     -7.82312   6.20592 
 C                    -0.47825  -6.85136   7.19559 
 C                    -1.46745  -5.76764   7.65126 
 C                    -2.79734  -6.47507   7.97591 
 H                    -3.05307  -8.05337   5.1091 
 H                    -0.51768  -7.92783   5.33692 
 H                    -0.21097  -7.43932   8.09468 
 H                    -2.58778  -7.37504   8.58529 
 H                    -1.62024  -5.05135   6.83391 
 O                     0.68391  -6.35178   6.55139 
 O                    -1.4958   -9.09268   6.78185 
 O                    -2.35027  -6.10413   4.87594 
 C                    -3.82353  -5.66052   8.75414 
 H                    -4.76985  -6.21802   8.76471 
 H                    -3.47324  -5.55798   9.79202 
 O                    -4.11805  -4.36557   8.20447 
 H                    -3.31611  -3.8061    8.33336 
 H                     1.22057  -5.87114   7.2253 
 H                    -0.66218  -9.57411   6.92265 
 C                    -1.96904  -6.31888   3.50085 
 H                    -0.86949  -6.36582   3.43387 
 H                    -2.37951  -7.28482   3.15537 
 C                    -2.51366  -5.17092   2.66033 
 H                    -2.02728  -5.24213   1.67592 
 H                    -2.15543  -4.21907   3.08845 
 C                    -4.05549  -5.15716   2.47537 
 H                    -4.26664  -5.1625    1.39694 
 H                    -4.48296  -6.09957   2.8584 
 C                    -4.83738  -3.97141   3.08015 
 H                    -4.29003  -3.0274    2.91501 
 H                    -5.78064  -3.86208   2.52345 
 C                    -5.23871  -4.0872    4.55064 
 H                    -5.74939  -5.04273   4.73884 
 H                    -5.92809  -3.27807   4.82688 
 N                    -4.07745  -4.02149   5.48636 
 H                    -3.37534  -4.75703   5.23675 
 H                    -4.33058  -4.22657   6.48995 
 H                    -3.62093  -3.07437   5.50802 
 
 The following ModRedundant input section has been read:
 B      62      83 B                                                           
 B      58      82 B                                                           
 B      41      84 B                                                           
 B       1      43 B                                                           
 B      36      64 B                                                           
 
 NAtoms=     84 NQM=       84 NQMF=       0 NMMI=      0 NMMIF=      0
                NMic=       0 NMicF=      0.
                    Isotopes and Nuclear Properties:
 (Nuclear quadrupole moments (NQMom) in fm**2, nuclear magnetic moments (NMagM)
  in nuclear magnetons)

  Atom         1           2           3           4           5           6           7           8           9          10
 IAtWgt=          16          12          12          12          12          12           1           1           1           1
 AtmWgt=  15.9949146  12.0000000  12.0000000  12.0000000  12.0000000  12.0000000   1.0078250   1.0078250   1.0078250   1.0078250
 NucSpn=           0           0           0           0           0           0           1           1           1           1
 AtZEff=   0.0000000   0.0000000   0.0000000   0.0000000   0.0000000   0.0000000   0.0000000   0.0000000   0.0000000   0.0000000
 NQMom=    0.0000000   0.0000000   0.0000000   0.0000000   0.0000000   0.0000000   0.0000000   0.0000000   0.0000000   0.0000000
 NMagM=    0.0000000   0.0000000   0.0000000   0.0000000   0.0000000   0.0000000   2.7928460   2.7928460   2.7928460   2.7928460
 AtZNuc=   8.0000000   6.0000000   6.0000000   6.0000000   6.0000000   6.0000000   1.0000000   1.0000000   1.0000000   1.0000000

  Atom        11          12          13          14          15          16          17          18          19          20
 IAtWgt=           1          16          16          16          16          12           1           1          16           1
 AtmWgt=   1.0078250  15.9949146  15.9949146  15.9949146  15.9949146  12.0000000   1.0078250   1.0078250  15.9949146   1.0078250
 NucSpn=           1           0           0           0           0           0           1           1           0           1
 AtZEff=   0.0000000   0.0000000   0.0000000   0.0000000   0.0000000   0.0000000   0.0000000   0.0000000   0.0000000   0.0000000
 NQMom=    0.0000000   0.0000000   0.0000000   0.0000000   0.0000000   0.0000000   0.0000000   0.0000000   0.0000000   0.0000000
 NMagM=    2.7928460   0.0000000   0.0000000   0.0000000   0.0000000   0.0000000   2.7928460   2.7928460   0.0000000   2.7928460
 AtZNuc=   1.0000000   8.0000000   8.0000000   8.0000000   8.0000000   6.0000000   1.0000000   1.0000000   8.0000000   1.0000000

  Atom        21          22          23          24          25          26          27          28          29          30
 IAtWgt=           1           1           1          16          12          12          12          12          12           1
 AtmWgt=   1.0078250   1.0078250   1.0078250  15.9949146  12.0000000  12.0000000  12.0000000  12.0000000  12.0000000   1.0078250
 NucSpn=           1           1           1           0           0           0           0           0           0           1
 AtZEff=   0.0000000   0.0000000   0.0000000   0.0000000   0.0000000   0.0000000   0.0000000   0.0000000   0.0000000   0.0000000
 NQMom=    0.0000000   0.0000000   0.0000000   0.0000000   0.0000000   0.0000000   0.0000000   0.0000000   0.0000000   0.0000000
 NMagM=    2.7928460   2.7928460   2.7928460   0.0000000   0.0000000   0.0000000   0.0000000   0.0000000   0.0000000   2.7928460
 AtZNuc=   1.0000000   1.0000000   1.0000000   8.0000000   6.0000000   6.0000000   6.0000000   6.0000000   6.0000000   1.0000000

  Atom        31          32          33          34          35          36          37          38          39          40
 IAtWgt=           1           1           1           1          16          16          16          12           1           1
 AtmWgt=   1.0078250   1.0078250   1.0078250   1.0078250  15.9949146  15.9949146  15.9949146  12.0000000   1.0078250   1.0078250
 NucSpn=           1           1           1           1           0           0           0           0           1           1
 AtZEff=   0.0000000   0.0000000   0.0000000   0.0000000   0.0000000   0.0000000   0.0000000   0.0000000   0.0000000   0.0000000
 NQMom=    0.0000000   0.0000000   0.0000000   0.0000000   0.0000000   0.0000000   0.0000000   0.0000000   0.0000000   0.0000000
 NMagM=    2.7928460   2.7928460   2.7928460   2.7928460   0.0000000   0.0000000   0.0000000   0.0000000   2.7928460   2.7928460
 AtZNuc=   1.0000000   1.0000000   1.0000000   1.0000000   8.0000000   8.0000000   8.0000000   6.0000000   1.0000000   1.0000000

  Atom        41          42          43          44          45          46          47          48          49          50
 IAtWgt=          16           1           1           1          16          12          12          12          12          12
 AtmWgt=  15.9949146   1.0078250   1.0078250   1.0078250  15.9949146  12.0000000  12.0000000  12.0000000  12.0000000  12.0000000
 NucSpn=           0           1           1           1           0           0           0           0           0           0
 AtZEff=   0.0000000   0.0000000   0.0000000   0.0000000   0.0000000   0.0000000   0.0000000   0.0000000   0.0000000   0.0000000
 NQMom=    0.0000000   0.0000000   0.0000000   0.0000000   0.0000000   0.0000000   0.0000000   0.0000000   0.0000000   0.0000000
 NMagM=    0.0000000   2.7928460   2.7928460   2.7928460   0.0000000   0.0000000   0.0000000   0.0000000   0.0000000   0.0000000
 AtZNuc=   8.0000000   1.0000000   1.0000000   1.0000000   8.0000000   6.0000000   6.0000000   6.0000000   6.0000000   6.0000000

  Atom        51          52          53          54          55          56          57          58          59          60
 IAtWgt=           1           1           1           1           1          16          16          16          12           1
 AtmWgt=   1.0078250   1.0078250   1.0078250   1.0078250   1.0078250  15.9949146  15.9949146  15.9949146  12.0000000   1.0078250
 NucSpn=           1           1           1           1           1           0           0           0           0           1
 AtZEff=   0.0000000   0.0000000   0.0000000   0.0000000   0.0000000   0.0000000   0.0000000   0.0000000   0.0000000   0.0000000
 NQMom=    0.0000000   0.0000000   0.0000000   0.0000000   0.0000000   0.0000000   0.0000000   0.0000000   0.0000000   0.0000000
 NMagM=    2.7928460   2.7928460   2.7928460   2.7928460   2.7928460   0.0000000   0.0000000   0.0000000   0.0000000   2.7928460
 AtZNuc=   1.0000000   1.0000000   1.0000000   1.0000000   1.0000000   8.0000000   8.0000000   8.0000000   6.0000000   1.0000000

  Atom        61          62          63          64          65          66          67          68          69          70
 IAtWgt=           1          16           1           1           1          12           1           1          12           1
 AtmWgt=   1.0078250  15.9949146   1.0078250   1.0078250   1.0078250  12.0000000   1.0078250   1.0078250  12.0000000   1.0078250
 NucSpn=           1           0           1           1           1           0           1           1           0           1
 AtZEff=   0.0000000   0.0000000   0.0000000   0.0000000   0.0000000   0.0000000   0.0000000   0.0000000   0.0000000   0.0000000
 NQMom=    0.0000000   0.0000000   0.0000000   0.0000000   0.0000000   0.0000000   0.0000000   0.0000000   0.0000000   0.0000000
 NMagM=    2.7928460   0.0000000   2.7928460   2.7928460   2.7928460   0.0000000   2.7928460   2.7928460   0.0000000   2.7928460
 AtZNuc=   1.0000000   8.0000000   1.0000000   1.0000000   1.0000000   6.0000000   1.0000000   1.0000000   6.0000000   1.0000000

  Atom        71          72          73          74          75          76          77          78          79          80
 IAtWgt=           1          12           1           1          12           1           1          12           1           1
 AtmWgt=   1.0078250  12.0000000   1.0078250   1.0078250  12.0000000   1.0078250   1.0078250  12.0000000   1.0078250   1.0078250
 NucSpn=           1           0           1           1           0           1           1           0           1           1
 AtZEff=   0.0000000   0.0000000   0.0000000   0.0000000   0.0000000   0.0000000   0.0000000   0.0000000   0.0000000   0.0000000
 NQMom=    0.0000000   0.0000000   0.0000000   0.0000000   0.0000000   0.0000000   0.0000000   0.0000000   0.0000000   0.0000000
 NMagM=    2.7928460   0.0000000   2.7928460   2.7928460   0.0000000   2.7928460   2.7928460   0.0000000   2.7928460   2.7928460
 AtZNuc=   1.0000000   6.0000000   1.0000000   1.0000000   6.0000000   1.0000000   1.0000000   6.0000000   1.0000000   1.0000000

  Atom        81          82          83          84
 IAtWgt=          14           1           1           1
 AtmWgt=  14.0030740   1.0078250   1.0078250   1.0078250
 NucSpn=           2           1           1           1
 AtZEff=   0.0000000   0.0000000   0.0000000   0.0000000
 NQMom=    2.0440000   0.0000000   0.0000000   0.0000000
 NMagM=    0.4037610   2.7928460   2.7928460   2.7928460
 AtZNuc=   7.0000000   1.0000000   1.0000000   1.0000000
 Leave Link  101 at Wed Apr  6 15:55:05 2016, MaxMem= 10737418240 cpu:         5.8
 (Enter /share/apps//g09/l103.exe)

 GradGradGradGradGradGradGradGradGradGradGradGradGradGradGradGradGradGrad
 Berny optimization.
 Initialization pass.
                           ----------------------------
                           !    Initial Parameters    !
                           ! (Angstroms and Degrees)  !
 --------------------------                            --------------------------
 ! Name  Definition              Value          Derivative Info.                !
 --------------------------------------------------------------------------------
 ! R1    R(1,2)                  1.4224         estimate D2E/DX2                !
 ! R2    R(1,6)                  1.4532         estimate D2E/DX2                !
 ! R3    R(1,43)                 1.8575         estimate D2E/DX2                !
 ! R4    R(2,3)                  1.5272         estimate D2E/DX2                !
 ! R5    R(2,7)                  1.0996         estimate D2E/DX2                !
 ! R6    R(2,15)                 1.422          estimate D2E/DX2                !
 ! R7    R(3,4)                  1.5343         estimate D2E/DX2                !
 ! R8    R(3,8)                  1.1052         estimate D2E/DX2                !
 ! R9    R(3,14)                 1.4284         estimate D2E/DX2                !
 ! R10   R(4,5)                  1.5415         estimate D2E/DX2                !
 ! R11   R(4,9)                  1.101          estimate D2E/DX2                !
 ! R12   R(4,13)                 1.4225         estimate D2E/DX2                !
 ! R13   R(5,6)                  1.5381         estimate D2E/DX2                !
 ! R14   R(5,10)                 1.1039         estimate D2E/DX2                !
 ! R15   R(5,12)                 1.4387         estimate D2E/DX2                !
 ! R16   R(6,11)                 1.1052         estimate D2E/DX2                !
 ! R17   R(6,16)                 1.5155         estimate D2E/DX2                !
 ! R18   R(12,21)                0.9709         estimate D2E/DX2                !
 ! R19   R(13,22)                0.9793         estimate D2E/DX2                !
 ! R20   R(14,23)                0.9759         estimate D2E/DX2                !
 ! R21   R(15,27)                1.4325         estimate D2E/DX2                !
 ! R22   R(16,17)                1.1056         estimate D2E/DX2                !
 ! R23   R(16,18)                1.1032         estimate D2E/DX2                !
 ! R24   R(16,19)                1.4336         estimate D2E/DX2                !
 ! R25   R(19,20)                0.9716         estimate D2E/DX2                !
 ! R26   R(24,25)                1.4518         estimate D2E/DX2                !
 ! R27   R(24,29)                1.4452         estimate D2E/DX2                !
 ! R28   R(25,26)                1.5364         estimate D2E/DX2                !
 ! R29   R(25,30)                1.1055         estimate D2E/DX2                !
 ! R30   R(25,37)                1.3958         estimate D2E/DX2                !
 ! R31   R(26,27)                1.5307         estimate D2E/DX2                !
 ! R32   R(26,31)                1.1054         estimate D2E/DX2                !
 ! R33   R(26,36)                1.4244         estimate D2E/DX2                !
 ! R34   R(27,28)                1.5405         estimate D2E/DX2                !
 ! R35   R(27,32)                1.1038         estimate D2E/DX2                !
 ! R36   R(28,29)                1.5436         estimate D2E/DX2                !
 ! R37   R(28,33)                1.1047         estimate D2E/DX2                !
 ! R38   R(28,35)                1.4372         estimate D2E/DX2                !
 ! R39   R(29,34)                1.1083         estimate D2E/DX2                !
 ! R40   R(29,38)                1.5326         estimate D2E/DX2                !
 ! R41   R(35,43)                0.99           estimate D2E/DX2                !
 ! R42   R(36,44)                0.9862         estimate D2E/DX2                !
 ! R43   R(36,64)                1.8915         estimate D2E/DX2                !
 ! R44   R(37,49)                1.448          estimate D2E/DX2                !
 ! R45   R(38,39)                1.0995         estimate D2E/DX2                !
 ! R46   R(38,40)                1.1041         estimate D2E/DX2                !
 ! R47   R(38,41)                1.4349         estimate D2E/DX2                !
 ! R48   R(41,42)                0.992          estimate D2E/DX2                !
 ! R49   R(41,84)                1.7577         estimate D2E/DX2                !
 ! R50   R(45,46)                1.402          estimate D2E/DX2                !
 ! R51   R(45,50)                1.4537         estimate D2E/DX2                !
 ! R52   R(46,47)                1.5378         estimate D2E/DX2                !
 ! R53   R(46,51)                1.1035         estimate D2E/DX2                !
 ! R54   R(46,58)                1.4513         estimate D2E/DX2                !
 ! R55   R(47,48)                1.559          estimate D2E/DX2                !
 ! R56   R(47,52)                1.1037         estimate D2E/DX2                !
 ! R57   R(47,57)                1.4272         estimate D2E/DX2                !
 ! R58   R(48,49)                1.5364         estimate D2E/DX2                !
 ! R59   R(48,53)                1.107          estimate D2E/DX2                !
 ! R60   R(48,56)                1.4196         estimate D2E/DX2                !
 ! R61   R(49,50)                1.5409         estimate D2E/DX2                !
 ! R62   R(49,55)                1.0975         estimate D2E/DX2                !
 ! R63   R(50,54)                1.1069         estimate D2E/DX2                !
 ! R64   R(50,59)                1.5239         estimate D2E/DX2                !
 ! R65   R(56,64)                0.9865         estimate D2E/DX2                !
 ! R66   R(57,65)                0.9729         estimate D2E/DX2                !
 ! R67   R(58,66)                1.443          estimate D2E/DX2                !
 ! R68   R(58,82)                1.7308         estimate D2E/DX2                !
 ! R69   R(59,60)                1.0984         estimate D2E/DX2                !
 ! R70   R(59,61)                1.1002         estimate D2E/DX2                !
 ! R71   R(59,62)                1.4373         estimate D2E/DX2                !
 ! R72   R(62,63)                0.9863         estimate D2E/DX2                !
 ! R73   R(62,83)                1.7332         estimate D2E/DX2                !
 ! R74   R(66,67)                1.1026         estimate D2E/DX2                !
 ! R75   R(66,68)                1.1049         estimate D2E/DX2                !
 ! R76   R(66,69)                1.5234         estimate D2E/DX2                !
 ! R77   R(69,70)                1.1003         estimate D2E/DX2                !
 ! R78   R(69,71)                1.1035         estimate D2E/DX2                !
 ! R79   R(69,72)                1.5529         estimate D2E/DX2                !
 ! R80   R(72,73)                1.0989         estimate D2E/DX2                !
 ! R81   R(72,74)                1.1034         estimate D2E/DX2                !
 ! R82   R(72,75)                1.5437         estimate D2E/DX2                !
 ! R83   R(75,76)                1.1036         estimate D2E/DX2                !
 ! R84   R(75,77)                1.1007         estimate D2E/DX2                !
 ! R85   R(75,78)                1.5287         estimate D2E/DX2                !
 ! R86   R(78,79)                1.0997         estimate D2E/DX2                !
 ! R87   R(78,80)                1.0983         estimate D2E/DX2                !
 ! R88   R(78,81)                1.4928         estimate D2E/DX2                !
 ! R89   R(81,82)                1.047          estimate D2E/DX2                !
 ! R90   R(81,83)                1.0551         estimate D2E/DX2                !
 ! R91   R(81,84)                1.0516         estimate D2E/DX2                !
 ! A1    A(2,1,6)              113.0771         estimate D2E/DX2                !
 ! A2    A(2,1,43)              95.8083         estimate D2E/DX2                !
 ! A3    A(6,1,43)             117.8625         estimate D2E/DX2                !
 ! A4    A(1,2,3)              110.2775         estimate D2E/DX2                !
 ! A5    A(1,2,7)              104.9365         estimate D2E/DX2                !
 ! A6    A(1,2,15)             111.7766         estimate D2E/DX2                !
 ! A7    A(3,2,7)              110.5092         estimate D2E/DX2                !
 ! A8    A(3,2,15)             107.5447         estimate D2E/DX2                !
 ! A9    A(7,2,15)             111.8285         estimate D2E/DX2                !
 ! A10   A(2,3,4)              110.6258         estimate D2E/DX2                !
 ! A11   A(2,3,8)              106.9512         estimate D2E/DX2                !
 ! A12   A(2,3,14)             107.3084         estimate D2E/DX2                !
 ! A13   A(4,3,8)              108.987          estimate D2E/DX2                !
 ! A14   A(4,3,14)             112.4373         estimate D2E/DX2                !
 ! A15   A(8,3,14)             110.3832         estimate D2E/DX2                !
 ! A16   A(3,4,5)              109.9238         estimate D2E/DX2                !
 ! A17   A(3,4,9)              108.7756         estimate D2E/DX2                !
 ! A18   A(3,4,13)             110.4284         estimate D2E/DX2                !
 ! A19   A(5,4,9)              109.1277         estimate D2E/DX2                !
 ! A20   A(5,4,13)             112.1487         estimate D2E/DX2                !
 ! A21   A(9,4,13)             106.3163         estimate D2E/DX2                !
 ! A22   A(4,5,6)              109.5575         estimate D2E/DX2                !
 ! A23   A(4,5,10)             108.2005         estimate D2E/DX2                !
 ! A24   A(4,5,12)             106.6338         estimate D2E/DX2                !
 ! A25   A(6,5,10)             108.5742         estimate D2E/DX2                !
 ! A26   A(6,5,12)             113.2488         estimate D2E/DX2                !
 ! A27   A(10,5,12)            110.5034         estimate D2E/DX2                !
 ! A28   A(1,6,5)              111.3482         estimate D2E/DX2                !
 ! A29   A(1,6,11)             108.4834         estimate D2E/DX2                !
 ! A30   A(1,6,16)             105.9483         estimate D2E/DX2                !
 ! A31   A(5,6,11)             107.6086         estimate D2E/DX2                !
 ! A32   A(5,6,16)             115.1621         estimate D2E/DX2                !
 ! A33   A(11,6,16)            108.0946         estimate D2E/DX2                !
 ! A34   A(5,12,21)            109.1649         estimate D2E/DX2                !
 ! A35   A(4,13,22)            105.8946         estimate D2E/DX2                !
 ! A36   A(3,14,23)            107.0582         estimate D2E/DX2                !
 ! A37   A(2,15,27)            118.4681         estimate D2E/DX2                !
 ! A38   A(6,16,17)            108.8239         estimate D2E/DX2                !
 ! A39   A(6,16,18)            109.5321         estimate D2E/DX2                !
 ! A40   A(6,16,19)            106.746          estimate D2E/DX2                !
 ! A41   A(17,16,18)           109.0219         estimate D2E/DX2                !
 ! A42   A(17,16,19)           111.2349         estimate D2E/DX2                !
 ! A43   A(18,16,19)           111.4205         estimate D2E/DX2                !
 ! A44   A(16,19,20)           108.3563         estimate D2E/DX2                !
 ! A45   A(25,24,29)           115.9917         estimate D2E/DX2                !
 ! A46   A(24,25,26)           107.814          estimate D2E/DX2                !
 ! A47   A(24,25,30)           110.2217         estimate D2E/DX2                !
 ! A48   A(24,25,37)           108.3942         estimate D2E/DX2                !
 ! A49   A(26,25,30)           110.256          estimate D2E/DX2                !
 ! A50   A(26,25,37)           115.6068         estimate D2E/DX2                !
 ! A51   A(30,25,37)           104.4819         estimate D2E/DX2                !
 ! A52   A(25,26,27)           107.457          estimate D2E/DX2                !
 ! A53   A(25,26,31)           107.2649         estimate D2E/DX2                !
 ! A54   A(25,26,36)           108.5742         estimate D2E/DX2                !
 ! A55   A(27,26,31)           109.9246         estimate D2E/DX2                !
 ! A56   A(27,26,36)           112.7254         estimate D2E/DX2                !
 ! A57   A(31,26,36)           110.6836         estimate D2E/DX2                !
 ! A58   A(15,27,26)           112.0165         estimate D2E/DX2                !
 ! A59   A(15,27,28)           114.6962         estimate D2E/DX2                !
 ! A60   A(15,27,32)           102.6561         estimate D2E/DX2                !
 ! A61   A(26,27,28)           110.453          estimate D2E/DX2                !
 ! A62   A(26,27,32)           108.5853         estimate D2E/DX2                !
 ! A63   A(28,27,32)           107.9193         estimate D2E/DX2                !
 ! A64   A(27,28,29)           109.0047         estimate D2E/DX2                !
 ! A65   A(27,28,33)           108.7327         estimate D2E/DX2                !
 ! A66   A(27,28,35)           112.3557         estimate D2E/DX2                !
 ! A67   A(29,28,33)           107.56           estimate D2E/DX2                !
 ! A68   A(29,28,35)           109.6931         estimate D2E/DX2                !
 ! A69   A(33,28,35)           109.3725         estimate D2E/DX2                !
 ! A70   A(24,29,28)           112.8681         estimate D2E/DX2                !
 ! A71   A(24,29,34)           108.8633         estimate D2E/DX2                !
 ! A72   A(24,29,38)           107.2821         estimate D2E/DX2                !
 ! A73   A(28,29,34)           107.1755         estimate D2E/DX2                !
 ! A74   A(28,29,38)           113.1651         estimate D2E/DX2                !
 ! A75   A(34,29,38)           107.2894         estimate D2E/DX2                !
 ! A76   A(28,35,43)           107.9208         estimate D2E/DX2                !
 ! A77   A(26,36,44)           108.9039         estimate D2E/DX2                !
 ! A78   A(26,36,64)            93.6094         estimate D2E/DX2                !
 ! A79   A(44,36,64)           106.3544         estimate D2E/DX2                !
 ! A80   A(25,37,49)           116.4101         estimate D2E/DX2                !
 ! A81   A(29,38,39)           109.5277         estimate D2E/DX2                !
 ! A82   A(29,38,40)           108.1406         estimate D2E/DX2                !
 ! A83   A(29,38,41)           113.8904         estimate D2E/DX2                !
 ! A84   A(39,38,40)           107.5837         estimate D2E/DX2                !
 ! A85   A(39,38,41)           107.3339         estimate D2E/DX2                !
 ! A86   A(40,38,41)           110.1901         estimate D2E/DX2                !
 ! A87   A(38,41,42)           104.0472         estimate D2E/DX2                !
 ! A88   A(38,41,84)           123.4517         estimate D2E/DX2                !
 ! A89   A(42,41,84)           108.6364         estimate D2E/DX2                !
 ! A90   A(1,43,35)            145.3416         estimate D2E/DX2                !
 ! A91   A(46,45,50)           116.0839         estimate D2E/DX2                !
 ! A92   A(45,46,47)           113.8278         estimate D2E/DX2                !
 ! A93   A(45,46,51)           106.9272         estimate D2E/DX2                !
 ! A94   A(45,46,58)           106.5269         estimate D2E/DX2                !
 ! A95   A(47,46,51)           109.7076         estimate D2E/DX2                !
 ! A96   A(47,46,58)           110.9922         estimate D2E/DX2                !
 ! A97   A(51,46,58)           108.6446         estimate D2E/DX2                !
 ! A98   A(46,47,48)           112.771          estimate D2E/DX2                !
 ! A99   A(46,47,52)           108.1443         estimate D2E/DX2                !
 ! A100  A(46,47,57)           104.9253         estimate D2E/DX2                !
 ! A101  A(48,47,52)           106.3116         estimate D2E/DX2                !
 ! A102  A(48,47,57)           113.3363         estimate D2E/DX2                !
 ! A103  A(52,47,57)           111.3367         estimate D2E/DX2                !
 ! A104  A(47,48,49)           109.512          estimate D2E/DX2                !
 ! A105  A(47,48,53)           107.1426         estimate D2E/DX2                !
 ! A106  A(47,48,56)           107.7612         estimate D2E/DX2                !
 ! A107  A(49,48,53)           106.8101         estimate D2E/DX2                !
 ! A108  A(49,48,56)           114.4213         estimate D2E/DX2                !
 ! A109  A(53,48,56)           110.966          estimate D2E/DX2                !
 ! A110  A(37,49,48)           112.4985         estimate D2E/DX2                !
 ! A111  A(37,49,50)           109.0417         estimate D2E/DX2                !
 ! A112  A(37,49,55)           109.2662         estimate D2E/DX2                !
 ! A113  A(48,49,50)           107.1167         estimate D2E/DX2                !
 ! A114  A(48,49,55)           109.2151         estimate D2E/DX2                !
 ! A115  A(50,49,55)           109.657          estimate D2E/DX2                !
 ! A116  A(45,50,49)           108.8739         estimate D2E/DX2                !
 ! A117  A(45,50,54)           108.0434         estimate D2E/DX2                !
 ! A118  A(45,50,59)           107.9823         estimate D2E/DX2                !
 ! A119  A(49,50,54)           109.018          estimate D2E/DX2                !
 ! A120  A(49,50,59)           116.3196         estimate D2E/DX2                !
 ! A121  A(54,50,59)           106.3164         estimate D2E/DX2                !
 ! A122  A(48,56,64)           107.8676         estimate D2E/DX2                !
 ! A123  A(47,57,65)           108.3601         estimate D2E/DX2                !
 ! A124  A(46,58,66)           117.2728         estimate D2E/DX2                !
 ! A125  A(46,58,82)           115.7619         estimate D2E/DX2                !
 ! A126  A(66,58,82)           118.0957         estimate D2E/DX2                !
 ! A127  A(50,59,60)           108.2877         estimate D2E/DX2                !
 ! A128  A(50,59,61)           108.4925         estimate D2E/DX2                !
 ! A129  A(50,59,62)           115.1048         estimate D2E/DX2                !
 ! A130  A(60,59,61)           108.2124         estimate D2E/DX2                !
 ! A131  A(60,59,62)           106.5252         estimate D2E/DX2                !
 ! A132  A(61,59,62)           110.0018         estimate D2E/DX2                !
 ! A133  A(59,62,63)           107.1269         estimate D2E/DX2                !
 ! A134  A(59,62,83)           118.4045         estimate D2E/DX2                !
 ! A135  A(63,62,83)           100.5728         estimate D2E/DX2                !
 ! A136  A(36,64,56)           154.2438         estimate D2E/DX2                !
 ! A137  A(58,66,67)           109.1282         estimate D2E/DX2                !
 ! A138  A(58,66,68)           109.263          estimate D2E/DX2                !
 ! A139  A(58,66,69)           108.6123         estimate D2E/DX2                !
 ! A140  A(67,66,68)           108.3157         estimate D2E/DX2                !
 ! A141  A(67,66,69)           110.7977         estimate D2E/DX2                !
 ! A142  A(68,66,69)           110.697          estimate D2E/DX2                !
 ! A143  A(66,69,70)           106.6672         estimate D2E/DX2                !
 ! A144  A(66,69,71)           108.6557         estimate D2E/DX2                !
 ! A145  A(66,69,72)           115.2977         estimate D2E/DX2                !
 ! A146  A(70,69,71)           105.0363         estimate D2E/DX2                !
 ! A147  A(70,69,72)           109.4442         estimate D2E/DX2                !
 ! A148  A(71,69,72)           111.1545         estimate D2E/DX2                !
 ! A149  A(69,72,73)           107.9151         estimate D2E/DX2                !
 ! A150  A(69,72,74)           109.616          estimate D2E/DX2                !
 ! A151  A(69,72,75)           117.5817         estimate D2E/DX2                !
 ! A152  A(73,72,74)           105.1927         estimate D2E/DX2                !
 ! A153  A(73,72,75)           106.9102         estimate D2E/DX2                !
 ! A154  A(74,72,75)           108.8933         estimate D2E/DX2                !
 ! A155  A(72,75,76)           110.3156         estimate D2E/DX2                !
 ! A156  A(72,75,77)           108.1912         estimate D2E/DX2                !
 ! A157  A(72,75,78)           116.8494         estimate D2E/DX2                !
 ! A158  A(76,75,77)           105.3291         estimate D2E/DX2                !
 ! A159  A(76,75,78)           109.8119         estimate D2E/DX2                !
 ! A160  A(77,75,78)           105.608          estimate D2E/DX2                !
 ! A161  A(75,78,79)           110.6324         estimate D2E/DX2                !
 ! A162  A(75,78,80)           110.5444         estimate D2E/DX2                !
 ! A163  A(75,78,81)           113.2914         estimate D2E/DX2                !
 ! A164  A(79,78,80)           107.7952         estimate D2E/DX2                !
 ! A165  A(79,78,81)           106.9917         estimate D2E/DX2                !
 ! A166  A(80,78,81)           107.3493         estimate D2E/DX2                !
 ! A167  A(78,81,82)           109.9554         estimate D2E/DX2                !
 ! A168  A(78,81,83)           113.6422         estimate D2E/DX2                !
 ! A169  A(78,81,84)           112.9703         estimate D2E/DX2                !
 ! A170  A(82,81,83)           104.5415         estimate D2E/DX2                !
 ! A171  A(82,81,84)           110.2732         estimate D2E/DX2                !
 ! A172  A(83,81,84)           105.0464         estimate D2E/DX2                !
 ! A173  A(62,83,81)           157.9791         estimate D2E/DX2                !
 ! A174  L(58,82,81,1,-1)      186.271          estimate D2E/DX2                !
 ! A175  L(41,84,81,14,-1)     180.8874         estimate D2E/DX2                !
 ! A176  L(58,82,81,1,-2)      181.6528         estimate D2E/DX2                !
 ! A177  L(41,84,81,14,-2)     168.7538         estimate D2E/DX2                !
 ! D1    D(6,1,2,3)            -60.3207         estimate D2E/DX2                !
 ! D2    D(6,1,2,7)           -179.3414         estimate D2E/DX2                !
 ! D3    D(6,1,2,15)            59.2609         estimate D2E/DX2                !
 ! D4    D(43,1,2,3)           176.0399         estimate D2E/DX2                !
 ! D5    D(43,1,2,7)            57.0191         estimate D2E/DX2                !
 ! D6    D(43,1,2,15)          -64.3786         estimate D2E/DX2                !
 ! D7    D(2,1,6,5)             59.6928         estimate D2E/DX2                !
 ! D8    D(2,1,6,11)           -58.5439         estimate D2E/DX2                !
 ! D9    D(2,1,6,16)          -174.4001         estimate D2E/DX2                !
 ! D10   D(43,1,6,5)           170.1594         estimate D2E/DX2                !
 ! D11   D(43,1,6,11)           51.9227         estimate D2E/DX2                !
 ! D12   D(43,1,6,16)          -63.9336         estimate D2E/DX2                !
 ! D13   D(2,1,43,35)           -7.9048         estimate D2E/DX2                !
 ! D14   D(6,1,43,35)         -127.8672         estimate D2E/DX2                !
 ! D15   D(1,2,3,4)             57.5029         estimate D2E/DX2                !
 ! D16   D(1,2,3,8)            -61.0616         estimate D2E/DX2                !
 ! D17   D(1,2,3,14)          -179.5102         estimate D2E/DX2                !
 ! D18   D(7,2,3,4)            173.0706         estimate D2E/DX2                !
 ! D19   D(7,2,3,8)             54.5061         estimate D2E/DX2                !
 ! D20   D(7,2,3,14)           -63.9425         estimate D2E/DX2                !
 ! D21   D(15,2,3,4)           -64.6109         estimate D2E/DX2                !
 ! D22   D(15,2,3,8)           176.8246         estimate D2E/DX2                !
 ! D23   D(15,2,3,14)           58.376          estimate D2E/DX2                !
 ! D24   D(1,2,15,27)           93.3193         estimate D2E/DX2                !
 ! D25   D(3,2,15,27)         -145.5018         estimate D2E/DX2                !
 ! D26   D(7,2,15,27)          -24.0039         estimate D2E/DX2                !
 ! D27   D(2,3,4,5)            -54.4318         estimate D2E/DX2                !
 ! D28   D(2,3,4,9)             64.9972         estimate D2E/DX2                !
 ! D29   D(2,3,4,13)          -178.6905         estimate D2E/DX2                !
 ! D30   D(8,3,4,5)             62.8878         estimate D2E/DX2                !
 ! D31   D(8,3,4,9)           -177.6831         estimate D2E/DX2                !
 ! D32   D(8,3,4,13)           -61.3708         estimate D2E/DX2                !
 ! D33   D(14,3,4,5)          -174.3888         estimate D2E/DX2                !
 ! D34   D(14,3,4,9)           -54.9597         estimate D2E/DX2                !
 ! D35   D(14,3,4,13)           61.3525         estimate D2E/DX2                !
 ! D36   D(2,3,14,23)         -166.1607         estimate D2E/DX2                !
 ! D37   D(4,3,14,23)          -44.2991         estimate D2E/DX2                !
 ! D38   D(8,3,14,23)           77.635          estimate D2E/DX2                !
 ! D39   D(3,4,5,6)             52.6996         estimate D2E/DX2                !
 ! D40   D(3,4,5,10)           170.9055         estimate D2E/DX2                !
 ! D41   D(3,4,5,12)           -70.2103         estimate D2E/DX2                !
 ! D42   D(9,4,5,6)            -66.5142         estimate D2E/DX2                !
 ! D43   D(9,4,5,10)            51.6917         estimate D2E/DX2                !
 ! D44   D(9,4,5,12)           170.5759         estimate D2E/DX2                !
 ! D45   D(13,4,5,6)           175.9553         estimate D2E/DX2                !
 ! D46   D(13,4,5,10)          -65.8388         estimate D2E/DX2                !
 ! D47   D(13,4,5,12)           53.0454         estimate D2E/DX2                !
 ! D48   D(3,4,13,22)           79.3812         estimate D2E/DX2                !
 ! D49   D(5,4,13,22)          -43.5902         estimate D2E/DX2                !
 ! D50   D(9,4,13,22)         -162.785          estimate D2E/DX2                !
 ! D51   D(4,5,6,1)            -54.6672         estimate D2E/DX2                !
 ! D52   D(4,5,6,11)            64.0945         estimate D2E/DX2                !
 ! D53   D(4,5,6,16)          -175.3009         estimate D2E/DX2                !
 ! D54   D(10,5,6,1)          -172.6404         estimate D2E/DX2                !
 ! D55   D(10,5,6,11)          -53.8787         estimate D2E/DX2                !
 ! D56   D(10,5,6,16)           66.726          estimate D2E/DX2                !
 ! D57   D(12,5,6,1)            64.2304         estimate D2E/DX2                !
 ! D58   D(12,5,6,11)         -177.0079         estimate D2E/DX2                !
 ! D59   D(12,5,6,16)          -56.4033         estimate D2E/DX2                !
 ! D60   D(4,5,12,21)         -142.9426         estimate D2E/DX2                !
 ! D61   D(6,5,12,21)           96.4869         estimate D2E/DX2                !
 ! D62   D(10,5,12,21)         -25.5715         estimate D2E/DX2                !
 ! D63   D(1,6,16,17)         -174.6248         estimate D2E/DX2                !
 ! D64   D(1,6,16,18)          -55.5268         estimate D2E/DX2                !
 ! D65   D(1,6,16,19)           65.2311         estimate D2E/DX2                !
 ! D66   D(5,6,16,17)          -51.0832         estimate D2E/DX2                !
 ! D67   D(5,6,16,18)           68.0148         estimate D2E/DX2                !
 ! D68   D(5,6,16,19)         -171.2273         estimate D2E/DX2                !
 ! D69   D(11,6,16,17)          69.2554         estimate D2E/DX2                !
 ! D70   D(11,6,16,18)        -171.6467         estimate D2E/DX2                !
 ! D71   D(11,6,16,19)         -50.8888         estimate D2E/DX2                !
 ! D72   D(2,15,27,26)          57.984          estimate D2E/DX2                !
 ! D73   D(2,15,27,28)         -68.9449         estimate D2E/DX2                !
 ! D74   D(2,15,27,32)         174.289          estimate D2E/DX2                !
 ! D75   D(6,16,19,20)        -175.1852         estimate D2E/DX2                !
 ! D76   D(17,16,19,20)         66.233          estimate D2E/DX2                !
 ! D77   D(18,16,19,20)        -55.6414         estimate D2E/DX2                !
 ! D78   D(29,24,25,26)        -59.29           estimate D2E/DX2                !
 ! D79   D(29,24,25,30)         61.1013         estimate D2E/DX2                !
 ! D80   D(29,24,25,37)        174.8888         estimate D2E/DX2                !
 ! D81   D(25,24,29,28)         53.0481         estimate D2E/DX2                !
 ! D82   D(25,24,29,34)        -65.8189         estimate D2E/DX2                !
 ! D83   D(25,24,29,38)        178.3822         estimate D2E/DX2                !
 ! D84   D(24,25,26,27)         62.1309         estimate D2E/DX2                !
 ! D85   D(24,25,26,31)        -56.0222         estimate D2E/DX2                !
 ! D86   D(24,25,26,36)       -175.6679         estimate D2E/DX2                !
 ! D87   D(30,25,26,27)        -58.239          estimate D2E/DX2                !
 ! D88   D(30,25,26,31)       -176.392          estimate D2E/DX2                !
 ! D89   D(30,25,26,36)         63.9623         estimate D2E/DX2                !
 ! D90   D(37,25,26,27)       -176.433          estimate D2E/DX2                !
 ! D91   D(37,25,26,31)         65.414          estimate D2E/DX2                !
 ! D92   D(37,25,26,36)        -54.2317         estimate D2E/DX2                !
 ! D93   D(24,25,37,49)         56.9465         estimate D2E/DX2                !
 ! D94   D(26,25,37,49)        -64.1774         estimate D2E/DX2                !
 ! D95   D(30,25,37,49)        174.4697         estimate D2E/DX2                !
 ! D96   D(25,26,27,15)        168.2332         estimate D2E/DX2                !
 ! D97   D(25,26,27,28)        -62.5838         estimate D2E/DX2                !
 ! D98   D(25,26,27,32)         55.5707         estimate D2E/DX2                !
 ! D99   D(31,26,27,15)        -75.3487         estimate D2E/DX2                !
 ! D100  D(31,26,27,28)         53.8343         estimate D2E/DX2                !
 ! D101  D(31,26,27,32)        171.9888         estimate D2E/DX2                !
 ! D102  D(36,26,27,15)         48.6472         estimate D2E/DX2                !
 ! D103  D(36,26,27,28)        177.8302         estimate D2E/DX2                !
 ! D104  D(36,26,27,32)        -64.0153         estimate D2E/DX2                !
 ! D105  D(25,26,36,44)       -161.3537         estimate D2E/DX2                !
 ! D106  D(25,26,36,64)         89.994          estimate D2E/DX2                !
 ! D107  D(27,26,36,44)        -42.4162         estimate D2E/DX2                !
 ! D108  D(27,26,36,64)       -151.0685         estimate D2E/DX2                !
 ! D109  D(31,26,36,44)         81.16           estimate D2E/DX2                !
 ! D110  D(31,26,36,64)        -27.4923         estimate D2E/DX2                !
 ! D111  D(15,27,28,29)       -177.5577         estimate D2E/DX2                !
 ! D112  D(15,27,28,33)        -60.5735         estimate D2E/DX2                !
 ! D113  D(15,27,28,35)         60.6378         estimate D2E/DX2                !
 ! D114  D(26,27,28,29)         54.7167         estimate D2E/DX2                !
 ! D115  D(26,27,28,33)        171.7009         estimate D2E/DX2                !
 ! D116  D(26,27,28,35)        -67.0879         estimate D2E/DX2                !
 ! D117  D(32,27,28,29)        -63.8448         estimate D2E/DX2                !
 ! D118  D(32,27,28,33)         53.1394         estimate D2E/DX2                !
 ! D119  D(32,27,28,35)        174.3507         estimate D2E/DX2                !
 ! D120  D(27,28,29,24)        -48.2612         estimate D2E/DX2                !
 ! D121  D(27,28,29,34)         71.582          estimate D2E/DX2                !
 ! D122  D(27,28,29,38)       -170.3447         estimate D2E/DX2                !
 ! D123  D(33,28,29,24)       -165.9884         estimate D2E/DX2                !
 ! D124  D(33,28,29,34)        -46.1452         estimate D2E/DX2                !
 ! D125  D(33,28,29,38)         71.9282         estimate D2E/DX2                !
 ! D126  D(35,28,29,24)         75.1434         estimate D2E/DX2                !
 ! D127  D(35,28,29,34)       -165.0134         estimate D2E/DX2                !
 ! D128  D(35,28,29,38)        -46.9401         estimate D2E/DX2                !
 ! D129  D(27,28,35,43)        -71.5794         estimate D2E/DX2                !
 ! D130  D(29,28,35,43)        167.0089         estimate D2E/DX2                !
 ! D131  D(33,28,35,43)         49.2645         estimate D2E/DX2                !
 ! D132  D(24,29,38,39)         55.4242         estimate D2E/DX2                !
 ! D133  D(24,29,38,40)        172.3927         estimate D2E/DX2                !
 ! D134  D(24,29,38,41)        -64.7639         estimate D2E/DX2                !
 ! D135  D(28,29,38,39)       -179.4203         estimate D2E/DX2                !
 ! D136  D(28,29,38,40)        -62.4518         estimate D2E/DX2                !
 ! D137  D(28,29,38,41)         60.3916         estimate D2E/DX2                !
 ! D138  D(34,29,38,39)        -61.4133         estimate D2E/DX2                !
 ! D139  D(34,29,38,40)         55.5552         estimate D2E/DX2                !
 ! D140  D(34,29,38,41)        178.3986         estimate D2E/DX2                !
 ! D141  D(28,35,43,1)          71.2996         estimate D2E/DX2                !
 ! D142  D(26,36,64,56)          2.9221         estimate D2E/DX2                !
 ! D143  D(44,36,64,56)       -107.9833         estimate D2E/DX2                !
 ! D144  D(25,37,49,48)        108.5176         estimate D2E/DX2                !
 ! D145  D(25,37,49,50)       -132.7998         estimate D2E/DX2                !
 ! D146  D(25,37,49,55)        -12.9577         estimate D2E/DX2                !
 ! D147  D(29,38,41,42)        -45.528          estimate D2E/DX2                !
 ! D148  D(29,38,41,84)         78.5357         estimate D2E/DX2                !
 ! D149  D(39,38,41,42)       -166.9426         estimate D2E/DX2                !
 ! D150  D(39,38,41,84)        -42.8789         estimate D2E/DX2                !
 ! D151  D(40,38,41,42)         76.1876         estimate D2E/DX2                !
 ! D152  D(40,38,41,84)       -159.7487         estimate D2E/DX2                !
 ! D153  D(38,41,81,78)        129.3306         estimate D2E/DX2                !
 ! D154  D(38,41,81,82)       -102.151          estimate D2E/DX2                !
 ! D155  D(38,41,81,83)          7.6658         estimate D2E/DX2                !
 ! D156  D(42,41,81,78)       -109.2328         estimate D2E/DX2                !
 ! D157  D(42,41,81,82)         19.2855         estimate D2E/DX2                !
 ! D158  D(42,41,81,83)        129.1023         estimate D2E/DX2                !
 ! D159  D(50,45,46,47)         28.1584         estimate D2E/DX2                !
 ! D160  D(50,45,46,51)        149.4735         estimate D2E/DX2                !
 ! D161  D(50,45,46,58)        -94.494          estimate D2E/DX2                !
 ! D162  D(46,45,50,49)         32.7968         estimate D2E/DX2                !
 ! D163  D(46,45,50,54)        -85.4688         estimate D2E/DX2                !
 ! D164  D(46,45,50,59)        159.9249         estimate D2E/DX2                !
 ! D165  D(45,46,47,48)        -53.4551         estimate D2E/DX2                !
 ! D166  D(45,46,47,52)       -170.7197         estimate D2E/DX2                !
 ! D167  D(45,46,47,57)         70.359          estimate D2E/DX2                !
 ! D168  D(51,46,47,48)       -173.2095         estimate D2E/DX2                !
 ! D169  D(51,46,47,52)         69.5259         estimate D2E/DX2                !
 ! D170  D(51,46,47,57)        -49.3954         estimate D2E/DX2                !
 ! D171  D(58,46,47,48)         66.7129         estimate D2E/DX2                !
 ! D172  D(58,46,47,52)        -50.5518         estimate D2E/DX2                !
 ! D173  D(58,46,47,57)       -169.473          estimate D2E/DX2                !
 ! D174  D(45,46,58,66)       -155.1652         estimate D2E/DX2                !
 ! D175  D(45,46,58,82)         -8.3281         estimate D2E/DX2                !
 ! D176  D(47,46,58,66)         80.4178         estimate D2E/DX2                !
 ! D177  D(47,46,58,82)       -132.7451         estimate D2E/DX2                !
 ! D178  D(51,46,58,66)        -40.2902         estimate D2E/DX2                !
 ! D179  D(51,46,58,82)        106.5469         estimate D2E/DX2                !
 ! D180  D(46,47,48,49)         13.1059         estimate D2E/DX2                !
 ! D181  D(46,47,48,53)        128.5981         estimate D2E/DX2                !
 ! D182  D(46,47,48,56)       -111.9302         estimate D2E/DX2                !
 ! D183  D(52,47,48,49)        131.4483         estimate D2E/DX2                !
 ! D184  D(52,47,48,53)       -113.0595         estimate D2E/DX2                !
 ! D185  D(52,47,48,56)          6.4123         estimate D2E/DX2                !
 ! D186  D(57,47,48,49)       -105.927          estimate D2E/DX2                !
 ! D187  D(57,47,48,53)          9.5652         estimate D2E/DX2                !
 ! D188  D(57,47,48,56)        129.0369         estimate D2E/DX2                !
 ! D189  D(46,47,57,65)        166.6409         estimate D2E/DX2                !
 ! D190  D(48,47,57,65)        -69.9065         estimate D2E/DX2                !
 ! D191  D(52,47,57,65)         49.8894         estimate D2E/DX2                !
 ! D192  D(47,48,49,37)        164.1013         estimate D2E/DX2                !
 ! D193  D(47,48,49,50)         44.2963         estimate D2E/DX2                !
 ! D194  D(47,48,49,55)        -74.3942         estimate D2E/DX2                !
 ! D195  D(53,48,49,37)         48.3973         estimate D2E/DX2                !
 ! D196  D(53,48,49,50)        -71.4078         estimate D2E/DX2                !
 ! D197  D(53,48,49,55)        169.9017         estimate D2E/DX2                !
 ! D198  D(56,48,49,37)        -74.8117         estimate D2E/DX2                !
 ! D199  D(56,48,49,50)        165.3832         estimate D2E/DX2                !
 ! D200  D(56,48,49,55)         46.6928         estimate D2E/DX2                !
 ! D201  D(47,48,56,64)       -169.8257         estimate D2E/DX2                !
 ! D202  D(49,48,56,64)         68.1263         estimate D2E/DX2                !
 ! D203  D(53,48,56,64)        -52.813          estimate D2E/DX2                !
 ! D204  D(37,49,50,45)        166.3216         estimate D2E/DX2                !
 ! D205  D(37,49,50,54)        -76.0283         estimate D2E/DX2                !
 ! D206  D(37,49,50,59)         44.1059         estimate D2E/DX2                !
 ! D207  D(48,49,50,45)        -71.6824         estimate D2E/DX2                !
 ! D208  D(48,49,50,54)         45.9677         estimate D2E/DX2                !
 ! D209  D(48,49,50,59)        166.1019         estimate D2E/DX2                !
 ! D210  D(55,49,50,45)         46.7214         estimate D2E/DX2                !
 ! D211  D(55,49,50,54)        164.3715         estimate D2E/DX2                !
 ! D212  D(55,49,50,59)        -75.4942         estimate D2E/DX2                !
 ! D213  D(45,50,59,60)         47.855          estimate D2E/DX2                !
 ! D214  D(45,50,59,61)        165.0885         estimate D2E/DX2                !
 ! D215  D(45,50,59,62)        -71.2008         estimate D2E/DX2                !
 ! D216  D(49,50,59,60)        170.5379         estimate D2E/DX2                !
 ! D217  D(49,50,59,61)        -72.2286         estimate D2E/DX2                !
 ! D218  D(49,50,59,62)         51.4821         estimate D2E/DX2                !
 ! D219  D(54,50,59,60)        -67.8873         estimate D2E/DX2                !
 ! D220  D(54,50,59,61)         49.3462         estimate D2E/DX2                !
 ! D221  D(54,50,59,62)        173.057          estimate D2E/DX2                !
 ! D222  D(48,56,64,36)        -84.8548         estimate D2E/DX2                !
 ! D223  D(46,58,66,67)        -88.6087         estimate D2E/DX2                !
 ! D224  D(46,58,66,68)         29.6564         estimate D2E/DX2                !
 ! D225  D(46,58,66,69)        150.5031         estimate D2E/DX2                !
 ! D226  D(82,58,66,67)        125.3407         estimate D2E/DX2                !
 ! D227  D(82,58,66,68)       -116.3942         estimate D2E/DX2                !
 ! D228  D(82,58,66,69)          4.4524         estimate D2E/DX2                !
 ! D229  D(46,58,81,78)        -96.3061         estimate D2E/DX2                !
 ! D230  D(46,58,81,83)         23.9634         estimate D2E/DX2                !
 ! D231  D(46,58,81,84)        136.8791         estimate D2E/DX2                !
 ! D232  D(66,58,81,78)         48.4331         estimate D2E/DX2                !
 ! D233  D(66,58,81,83)        168.7025         estimate D2E/DX2                !
 ! D234  D(66,58,81,84)        -78.3817         estimate D2E/DX2                !
 ! D235  D(50,59,62,63)        -69.5367         estimate D2E/DX2                !
 ! D236  D(50,59,62,83)         43.1025         estimate D2E/DX2                !
 ! D237  D(60,59,62,63)        170.4325         estimate D2E/DX2                !
 ! D238  D(60,59,62,83)        -76.9283         estimate D2E/DX2                !
 ! D239  D(61,59,62,63)         53.3721         estimate D2E/DX2                !
 ! D240  D(61,59,62,83)        166.0113         estimate D2E/DX2                !
 ! D241  D(59,62,83,81)        -98.4948         estimate D2E/DX2                !
 ! D242  D(63,62,83,81)         17.7061         estimate D2E/DX2                !
 ! D243  D(58,66,69,70)        167.8093         estimate D2E/DX2                !
 ! D244  D(58,66,69,71)         55.0472         estimate D2E/DX2                !
 ! D245  D(58,66,69,72)        -70.4649         estimate D2E/DX2                !
 ! D246  D(67,66,69,70)         47.956          estimate D2E/DX2                !
 ! D247  D(67,66,69,71)        -64.8062         estimate D2E/DX2                !
 ! D248  D(67,66,69,72)        169.6817         estimate D2E/DX2                !
 ! D249  D(68,66,69,70)        -72.2326         estimate D2E/DX2                !
 ! D250  D(68,66,69,71)        175.0052         estimate D2E/DX2                !
 ! D251  D(68,66,69,72)         49.4931         estimate D2E/DX2                !
 ! D252  D(66,69,72,73)       -123.5164         estimate D2E/DX2                !
 ! D253  D(66,69,72,74)         -9.4618         estimate D2E/DX2                !
 ! D254  D(66,69,72,75)        115.5685         estimate D2E/DX2                !
 ! D255  D(70,69,72,73)         -3.2992         estimate D2E/DX2                !
 ! D256  D(70,69,72,74)        110.7553         estimate D2E/DX2                !
 ! D257  D(70,69,72,75)       -124.2143         estimate D2E/DX2                !
 ! D258  D(71,69,72,73)        112.2705         estimate D2E/DX2                !
 ! D259  D(71,69,72,74)       -133.675          estimate D2E/DX2                !
 ! D260  D(71,69,72,75)         -8.6447         estimate D2E/DX2                !
 ! D261  D(69,72,75,76)         40.955          estimate D2E/DX2                !
 ! D262  D(69,72,75,77)        155.688          estimate D2E/DX2                !
 ! D263  D(69,72,75,78)        -85.3795         estimate D2E/DX2                !
 ! D264  D(73,72,75,76)        -80.481          estimate D2E/DX2                !
 ! D265  D(73,72,75,77)         34.2519         estimate D2E/DX2                !
 ! D266  D(73,72,75,78)        153.1845         estimate D2E/DX2                !
 ! D267  D(74,72,75,76)        166.343          estimate D2E/DX2                !
 ! D268  D(74,72,75,77)        -78.924          estimate D2E/DX2                !
 ! D269  D(74,72,75,78)         40.0085         estimate D2E/DX2                !
 ! D270  D(72,75,78,79)        -51.1013         estimate D2E/DX2                !
 ! D271  D(72,75,78,80)       -170.432          estimate D2E/DX2                !
 ! D272  D(72,75,78,81)         69.0348         estimate D2E/DX2                !
 ! D273  D(76,75,78,79)       -177.6848         estimate D2E/DX2                !
 ! D274  D(76,75,78,80)         62.9845         estimate D2E/DX2                !
 ! D275  D(76,75,78,81)        -57.5488         estimate D2E/DX2                !
 ! D276  D(77,75,78,79)         69.2117         estimate D2E/DX2                !
 ! D277  D(77,75,78,80)        -50.119          estimate D2E/DX2                !
 ! D278  D(77,75,78,81)       -170.6523         estimate D2E/DX2                !
 ! D279  D(75,78,81,82)        -55.6529         estimate D2E/DX2                !
 ! D280  D(75,78,81,83)       -172.4313         estimate D2E/DX2                !
 ! D281  D(75,78,81,84)         68.0081         estimate D2E/DX2                !
 ! D282  D(79,78,81,82)         66.5346         estimate D2E/DX2                !
 ! D283  D(79,78,81,83)        -50.2438         estimate D2E/DX2                !
 ! D284  D(79,78,81,84)       -169.8044         estimate D2E/DX2                !
 ! D285  D(80,78,81,82)       -177.9812         estimate D2E/DX2                !
 ! D286  D(80,78,81,83)         65.2404         estimate D2E/DX2                !
 ! D287  D(80,78,81,84)        -54.3202         estimate D2E/DX2                !
 ! D288  D(78,81,83,62)       -172.026          estimate D2E/DX2                !
 ! D289  D(82,81,83,62)         68.0772         estimate D2E/DX2                !
 ! D290  D(84,81,83,62)        -48.0523         estimate D2E/DX2                !
 --------------------------------------------------------------------------------
 Trust Radius=3.00D-01 FncErr=1.00D-07 GrdErr=1.00D-06
 Number of steps in this run=    504 maximum allowed number of steps=    504.
 GradGradGradGradGradGradGradGradGradGradGradGradGradGradGradGradGradGrad

 Leave Link  103 at Wed Apr  6 15:55:05 2016, MaxMem= 10737418240 cpu:         1.0
 (Enter /share/apps//g09/l202.exe)
 Stoichiometry    C23H44NO16(1+)
 Framework group  C1[X(C23H44NO16)]
 Deg. of freedom   246
 Full point group                 C1      NOp   1
 Largest Abelian subgroup         C1      NOp   1
 Largest concise Abelian subgroup C1      NOp   1
                         Standard orientation:                         
 ---------------------------------------------------------------------
 Center     Atomic      Atomic             Coordinates (Angstroms)
 Number     Number       Type             X           Y           Z
 ---------------------------------------------------------------------
      1          8           0       -3.496082    0.880762    0.657158
      2          6           0       -3.057017   -0.431160    0.326597
      3          6           0       -4.004778   -1.471618    0.919583
      4          6           0       -5.437771   -1.243974    0.420700
      5          6           0       -5.872195    0.205577    0.714422
      6          6           0       -4.824875    1.181121    0.151209
      7          1           0       -2.058226   -0.518005    0.778327
      8          1           0       -3.980988   -1.340951    2.016766
      9          1           0       -5.466022   -1.415812   -0.666491
     10          1           0       -6.833342    0.387807    0.203024
     11          1           0       -4.816034    1.064300   -0.947723
     12          8           0       -6.033138    0.306330    2.140584
     13          8           0       -6.322027   -2.196477    0.998964
     14          8           0       -3.500679   -2.759042    0.560843
     15          8           0       -3.020823   -0.636597   -1.080064
     16          6           0       -5.070189    2.642844    0.467201
     17          1           0       -6.109188    2.898533    0.188751
     18          1           0       -4.935238    2.814111    1.548645
     19          8           0       -4.125494    3.396384   -0.304126
     20          1           0       -4.210586    4.333368   -0.061659
     21          1           0       -6.789568    0.882796    2.336053
     22          1           0       -6.511445   -1.872111    1.903374
     23          1           0       -4.209910   -3.404653    0.741315
     24          8           0        0.942139    0.241728   -2.255554
     25          6           0        0.524468   -1.148073   -2.213886
     26          6           0       -0.647558   -1.257231   -1.226543
     27          6           0       -1.790302   -0.398103   -1.773507
     28          6           0       -1.366365    1.081314   -1.841956
     29          6           0       -0.065214    1.193803   -2.664763
     30          1           0        0.210233   -1.482954   -3.219487
     31          1           0       -0.300397   -0.850667   -0.258983
     32          1           0       -2.022089   -0.732790   -2.799503
     33          1           0       -2.148511    1.650159   -2.375794
     34          1           0       -0.330080    1.002315   -3.723763
     35          8           0       -1.166326    1.653498   -0.538822
     36          8           0       -1.004806   -2.629972   -1.096354
     37          8           0        1.638922   -1.934192   -1.916608
     38          6           0        0.571152    2.586473   -2.599066
     39          1           0        1.484121    2.602620   -3.211470
     40          1           0       -0.138111    3.309598   -3.038528
     41          8           0        0.938137    2.995749   -1.273664
     42          1           0        0.148649    2.759391   -0.721403
     43          1           0       -2.053965    1.761523   -0.114046
     44          1           0       -1.914709   -2.689079   -0.720726
     45          8           0        4.520358   -0.929909    0.152458
     46          6           0        3.952955   -1.167700    1.412310
     47          6           0        3.204739   -2.507366    1.513851
     48          6           0        2.131801   -2.685412    0.396955
     49          6           0        2.340363   -1.619366   -0.689622
     50          6           0        3.852799   -1.555020   -0.977474
     51          1           0        4.777459   -1.145469    2.145393
     52          1           0        2.659329   -2.524572    2.473211
     53          1           0        2.316027   -3.667840   -0.078853
     54          1           0        4.244584   -2.585154   -1.080111
     55          1           0        1.994436   -0.648008   -0.313755
     56          8           0        0.854076   -2.651783    1.014593
     57          8           0        4.226935   -3.502826    1.479708
     58          8           0        3.062886   -0.053415    1.681191
     59          6           0        4.269154   -0.810820   -2.240413
     60          1           0        5.361590   -0.697254   -2.229218
     61          1           0        3.996051   -1.423437   -3.112495
     62          8           0        3.722089    0.511181   -2.377556
     63          1           0        2.755420    0.409586   -2.544757
     64          1           0        0.185915   -2.926906    0.342996
     65          1           0        3.837309   -4.351631    1.752186
     66          6           0        2.783150    0.250713    3.063790
     67          1           0        1.911857   -0.338653    3.394238
     68          1           0        3.651846   -0.036633    3.683212
     69          6           0        2.504524    1.743426    3.186547
     70          1           0        2.083006    1.904299    4.190112
     71          1           0        1.692095    2.009406    2.488802
     72          6           0        3.737325    2.667013    2.989498
     73          1           0        3.838330    3.292185    3.887597
     74          1           0        4.656041    2.056689    2.957190
     75          6           0        3.728545    3.621758    1.776445
     76          1           0        2.726346    4.064788    1.644761
     77          1           0        4.394061    4.469189    2.001294
     78          6           0        4.222304    3.052679    0.446345
     79          1           0        5.202931    2.570966    0.571139
     80          1           0        4.333667    3.852881   -0.297644
     81          7           0        3.304251    2.029074   -0.134885
     82          1           0        3.141801    1.260544    0.557396
     83          1           0        3.697250    1.541819   -0.984273
     84          1           0        2.386865    2.433552   -0.452242
 ---------------------------------------------------------------------
 Rotational constants (GHZ):      0.1301812      0.0578571      0.0531141
 Leave Link  202 at Wed Apr  6 15:55:07 2016, MaxMem= 10737418240 cpu:         4.3
 (Enter /share/apps//g09/l301.exe)
 Standard basis: 6-311+G(d,p) (5D, 7F)
 Ernie: Thresh=  0.10000D-02 Tol=  0.10000D-05 Strict=F.
 There are  1184 symmetry adapted cartesian basis functions of A   symmetry.
 There are  1144 symmetry adapted basis functions of A   symmetry.
  1144 basis functions,  1792 primitive gaussians,  1184 cartesian basis functions
   158 alpha electrons      158 beta electrons
       nuclear repulsion energy      5832.7489996916 Hartrees.
 IExCor= 1009 DFT=T Ex+Corr=PBE1PBE ExCW=0 ScaHFX=  0.250000
 ScaDFX=  0.750000  0.750000  1.000000  1.000000 ScalE2=  1.000000  1.000000
 IRadAn=      0 IRanWt=     -1 IRanGd=            0 ICorTp=0 IEmpDi=131
 NAtoms=   84 NActive=   84 NUniq=   84 SFac= 1.00D+00 NAtFMM=   60 NAOKFM=T Big=T
 Integral buffers will be    131072 words long.
 Raffenetti 2 integral format.
 Two-electron integral symmetry is turned on.
 R6Disp:  Grimme-D3 Dispersion energy=       -0.0827185360 Hartrees.
 Nuclear repulsion after empirical dispersion term =     5832.6662811556 Hartrees.
 Leave Link  301 at Wed Apr  6 15:55:08 2016, MaxMem= 10737418240 cpu:         2.7
 (Enter /share/apps//g09/l302.exe)
 NPDir=0 NMtPBC=     1 NCelOv=     1 NCel=       1 NClECP=     1 NCelD=      1
         NCelK=      1 NCelE2=     1 NClLst=     1 CellRange=     0.0.
 One-electron integrals computed using PRISM.
 NBasis=  1144 RedAO= T EigKep=  1.20D-06  NBF=  1144
 NBsUse=  1144 1.00D-06 EigRej= -1.00D+00 NBFU=  1144
 Precomputing XC quadrature grid using
 IXCGrd= 4 IRadAn=           0 IRanWt=          -1 IRanGd=           0 AccXCQ= 0.00D+00.
 Generated NRdTot=       0 NPtTot=           0 NUsed=           0 NTot=          32
 NSgBfM=  1076  1076  1077  1077  1078 MxSgAt=    84 MxSgA2=    84.
 Leave Link  302 at Wed Apr  6 15:55:14 2016, MaxMem= 10737418240 cpu:        78.4
 (Enter /share/apps//g09/l303.exe)
 DipDrv:  MaxL=1.
 Leave Link  303 at Wed Apr  6 15:55:18 2016, MaxMem= 10737418240 cpu:        39.5
 (Enter /share/apps//g09/l401.exe)
 ExpMin= 4.38D-02 ExpMax= 8.59D+03 ExpMxC= 1.30D+03 IAcc=2 IRadAn=         4 AccDes= 0.00D+00
 Harris functional with IExCor= 1009 and IRadAn=       4 diagonalized for initial guess.
 HarFok:  IExCor= 1009 AccDes= 0.00D+00 IRadAn=         4 IDoV= 1 UseB2=F ITyADJ=14
 ICtDFT=  3500011 ScaDFX=  1.000000  1.000000  1.000000  1.000000
 FoFCou: FMM=F IPFlag=           0 FMFlag=      100000 FMFlg1=        2001
         NFxFlg=           0 DoJE=T BraDBF=F KetDBF=T FulRan=T
         wScrn=  0.000000 ICntrl=     500 IOpCl=  0 I1Cent=   200000004 NGrid=           0
         NMat0=    1 NMatS0=      1 NMatT0=    0 NMatD0=    1 NMtDS0=    0 NMtDT0=    0
 Petite list used in FoFCou.
 Harris En= -2159.70391152798    
 JPrj=0 DoOrth=F DoCkMO=F.
 Leave Link  401 at Wed Apr  6 15:55:24 2016, MaxMem= 10737418240 cpu:       116.4
 (Enter /share/apps//g09/l502.exe)
 Closed shell SCF:
 Using DIIS extrapolation, IDIIS=  1040.
 Integral symmetry usage will be decided dynamically.
 IVT=     4256630 IEndB=     4256630 NGot= 10737418240 MDV= 10734581291
 LenX= 10734581291 LenY= 10733178251
 Requested convergence on RMS density matrix=1.00D-08 within 128 cycles.
 Requested convergence on MAX density matrix=1.00D-06.
 Requested convergence on             energy=1.00D-06.
 No special actions if energy rises.
 Fock matrices will be formed incrementally for  20 cycles.

 Cycle   1  Pass 1  IDiag  1:
 FoFJK:  IHMeth= 1 ICntrl=       0 DoSepK=F KAlg= 0 I1Cent=   0 FoldK=F
 IRaf= 760000000 NMat=   1 IRICut=       1 DoRegI=T DoRafI=F ISym2E= 0.
 FoFCou: FMM=T IPFlag=           0 FMFlag=      100000 FMFlg1=        2001
         NFxFlg=           0 DoJE=F BraDBF=F KetDBF=F FulRan=T
         wScrn=  0.000000 ICntrl=       0 IOpCl=  0 I1Cent=           0 NGrid=           0
         NMat0=    1 NMatS0=      1 NMatT0=    0 NMatD0=    1 NMtDS0=    0 NMtDT0=    0
 Symmetry not used in FoFCou.
 FMM levels:  10  Number of levels for PrismC:   9
 E= -2158.69448794806    
 DIIS: error= 1.76D-02 at cycle   1 NSaved=   1.
 NSaved= 1 IEnMin= 1 EnMin= -2158.69448794806     IErMin= 1 ErrMin= 1.76D-02
 ErrMax= 1.76D-02  0.00D+00 EMaxC= 1.00D-01 BMatC= 1.02D+00 BMatP= 1.02D+00
 IDIUse=3 WtCom= 8.24D-01 WtEn= 1.76D-01
 Coeff-Com:  0.100D+01
 Coeff-En:   0.100D+01
 Coeff:      0.100D+01
 Gap=     0.260 Goal=   None    Shift=    0.000
 GapD=    0.260 DampG=1.000 DampE=0.500 DampFc=0.5000 IDamp=-1.
 Damping current iteration by 5.00D-01
 RMSDP=1.54D-02 MaxDP=3.99D+00              OVMax= 1.39D-01

 Cycle   2  Pass 1  IDiag  1:
 RMSU=  7.18D-03    CP:  1.05D+00
 E= -2158.97506603474     Delta-E=       -0.280578086680 Rises=F Damp=T
 DIIS: error= 3.43D-03 at cycle   2 NSaved=   2.
 NSaved= 2 IEnMin= 2 EnMin= -2158.97506603474     IErMin= 2 ErrMin= 3.43D-03
 ErrMax= 3.43D-03  0.00D+00 EMaxC= 1.00D-01 BMatC= 8.08D-02 BMatP= 1.02D+00
 IDIUse=3 WtCom= 9.66D-01 WtEn= 3.43D-02
 Coeff-Com:  0.588D-01 0.941D+00
 Coeff-En:   0.155D+00 0.845D+00
 Coeff:      0.621D-01 0.938D+00
 Gap=     0.293 Goal=   None    Shift=    0.000
 RMSDP=5.72D-03 MaxDP=1.99D+00 DE=-2.81D-01 OVMax= 8.65D-02

 Cycle   3  Pass 1  IDiag  1:
 RMSU=  3.18D-03    CP:  9.70D-01  8.28D-01
 E= -2159.34000313105     Delta-E=       -0.364937096308 Rises=F Damp=F
 DIIS: error= 3.89D-03 at cycle   3 NSaved=   3.
 NSaved= 3 IEnMin= 3 EnMin= -2159.34000313105     IErMin= 2 ErrMin= 3.43D-03
 ErrMax= 3.89D-03  0.00D+00 EMaxC= 1.00D-01 BMatC= 4.46D-02 BMatP= 8.08D-02
 IDIUse=3 WtCom= 9.61D-01 WtEn= 3.89D-02
 Coeff-Com: -0.677D-01 0.409D+00 0.659D+00
 Coeff-En:   0.000D+00 0.000D+00 0.100D+01
 Coeff:     -0.650D-01 0.393D+00 0.672D+00
 Gap=     0.278 Goal=   None    Shift=    0.000
 RMSDP=1.65D-03 MaxDP=5.16D-01 DE=-3.65D-01 OVMax= 1.62D-02

 Cycle   4  Pass 1  IDiag  1:
 RMSU=  1.33D-03    CP:  9.82D-01  8.94D-01  8.64D-01
 E= -2159.36774436987     Delta-E=       -0.027741238820 Rises=F Damp=F
 DIIS: error= 1.16D-03 at cycle   4 NSaved=   4.
 NSaved= 4 IEnMin= 4 EnMin= -2159.36774436987     IErMin= 4 ErrMin= 1.16D-03
 ErrMax= 1.16D-03  0.00D+00 EMaxC= 1.00D-01 BMatC= 5.90D-03 BMatP= 4.46D-02
 IDIUse=3 WtCom= 9.88D-01 WtEn= 1.16D-02
 Coeff-Com: -0.353D-01 0.123D+00 0.341D+00 0.571D+00
 Coeff-En:   0.000D+00 0.000D+00 0.774D-01 0.923D+00
 Coeff:     -0.349D-01 0.122D+00 0.338D+00 0.575D+00
 Gap=     0.271 Goal=   None    Shift=    0.000
 RMSDP=1.37D-03 MaxDP=5.19D-01 DE=-2.77D-02 OVMax= 5.56D-03

 Cycle   5  Pass 1  IDiag  1:
 RMSU=  3.68D-04    CP:  9.63D-01  8.76D-01  8.60D-01  5.65D-01
 E= -2159.37274857182     Delta-E=       -0.005004201953 Rises=F Damp=F
 DIIS: error= 2.49D-04 at cycle   5 NSaved=   5.
 NSaved= 5 IEnMin= 5 EnMin= -2159.37274857182     IErMin= 5 ErrMin= 2.49D-04
 ErrMax= 2.49D-04  0.00D+00 EMaxC= 1.00D-01 BMatC= 2.48D-04 BMatP= 5.90D-03
 IDIUse=3 WtCom= 9.98D-01 WtEn= 2.49D-03
 Coeff-Com: -0.108D-01 0.241D-01 0.985D-01 0.245D+00 0.643D+00
 Coeff-En:   0.000D+00 0.000D+00 0.000D+00 0.000D+00 0.100D+01
 Coeff:     -0.108D-01 0.241D-01 0.983D-01 0.245D+00 0.644D+00
 Gap=     0.271 Goal=   None    Shift=    0.000
 RMSDP=2.50D-04 MaxDP=1.01D-01 DE=-5.00D-03 OVMax= 1.44D-03

 Cycle   6  Pass 1  IDiag  1:
 RMSU=  1.01D-04    CP:  9.65D-01  8.84D-01  8.82D-01  6.05D-01  7.01D-01
 E= -2159.37294114648     Delta-E=       -0.000192574658 Rises=F Damp=F
 DIIS: error= 5.62D-05 at cycle   6 NSaved=   6.
 NSaved= 6 IEnMin= 6 EnMin= -2159.37294114648     IErMin= 6 ErrMin= 5.62D-05
 ErrMax= 5.62D-05  0.00D+00 EMaxC= 1.00D-01 BMatC= 1.62D-05 BMatP= 2.48D-04
 IDIUse=1 WtCom= 1.00D+00 WtEn= 0.00D+00
 Coeff-Com: -0.351D-02 0.613D-02 0.320D-01 0.922D-01 0.307D+00 0.566D+00
 Coeff:     -0.351D-02 0.613D-02 0.320D-01 0.922D-01 0.307D+00 0.566D+00
 Gap=     0.271 Goal=   None    Shift=    0.000
 RMSDP=4.44D-05 MaxDP=8.72D-03 DE=-1.93D-04 OVMax= 3.52D-04

 Cycle   7  Pass 1  IDiag  1:
 RMSU=  1.92D-05    CP:  9.66D-01  8.83D-01  8.80D-01  6.13D-01  7.29D-01
                    CP:  6.82D-01
 E= -2159.37295354040     Delta-E=       -0.000012393921 Rises=F Damp=F
[...]
 6,-0.00001290,-0.00001230,0.00003636,-0.00000088,0.00000613,-0.0000042
 0,0.00002481,0.00001729,-0.00002949,0.00002395,0.00009594,0.00001741,0
 .00000766,0.00002557,-0.00013378,0.00015533,0.00002212,0.00000054,0.00
 023339,0.00012039,0.00014688,-0.00001760,-0.00031713,0.00001871,0.0000
 8062,-0.00006683,0.00001052,-0.00000117,0.00001860,-0.00007165,-0.0000
 3376,0.00005289,-0.00087791,0.00005913,0.00016297,0.00011894,-0.000021
 56,-0.00001884,0.00003247,-0.00006224,-0.00002691,0.00002047,0.0000315
 3,-0.00118941,-0.00036441,-0.00061918,0.00036552,0.00089541,0.00009399
 ,0.00014105,-0.00001390,-0.00017349,-0.00000987,0.00033706,-0.00009721
 ,0.00015901,-0.00058680,-0.00016737,0.00055706,-0.00062316,0.00002771,
 -0.00000715,-0.00011948,0.00002738,-0.00003187,-0.00001305,0.00007104,
 -0.00008360,-0.00003329,0.00000110,-0.00010722,0.00001709,-0.00024058,
 -0.00009686,0.00039537,0.00018160,0.00000618,-0.00010775,-0.00004687,-
 0.00010058,-0.00005978,-0.00028204,0.00116631,-0.00105457,-0.00035527,
 0.00186004,-0.00085394,0.00000174,-0.00040598,0.00030302,0.00003710,-0
 .00028162,0.00025104,-0.00601893,-0.00238252,0.00565185,-0.00090423,-0
 .00004825,-0.00468205,-0.00006188,-0.00000495,-0.00001223,0.00000188,0
 .00005523,0.00000304,0.00016951,-0.00016690,0.00011775,0.00001950,-0.0
 0001937,-0.00002388,0.00000878,0.00001466,-0.00004538,-0.00017318,-0.0
 0039440,0.00006275,0.00002126,0.00014628,0.00003470,0.00016093,0.00021
 625,0.00006687,-0.00015353,-0.00003378,0.00004527,0.00006552,-0.000039
 12,0.00005345,0.00006387,-0.00009713,0.00002538,-0.00594804,0.00002866
 ,-0.00265989,-0.00005245,0.00012043,0.00030287,0.00058518,0.00013536,-
 0.00174770,0.01369347,0.00611862,-0.02685661,0.00082056,-0.00069227,-0
 .00003909,0.00022676,0.00076517,0.00003034,-0.09091981,-0.02034831,0.0
 8606035,-0.00704158,-0.00791004,0.02372544,0.10150108,0.00007053,-0.00
 004833,0.00000916,-0.00002225,0.00008348,-0.00003120,-0.00001386,0.000
 04181,-0.00002732,-0.00001045,0.00000660,-0.00000370,-0.00001594,0.000
 00425,0.00000446,-0.00000770,-0.00000907,0.00000571,-0.00000721,0.0000
 0936,-0.00001038,0.00000345,-0.00000094,0.00000321,-0.00000154,0.00000
 108,-0.00000186,0.00000116,-0.00000188,0.00000017,-0.00000392,0.000002
 04,-0.00000156,0.00001860,-0.00001149,0.00000006,0.00001739,-0.0000203
 4,0.00000519,0.00000207,-0.00005403,0.00002943,0.00004978,-0.00009904,
 0.00002618,-0.00005468,0.00001628,0.00000265,0.00001025,0.00000218,-0.
 00000011,0.00000378,-0.00000204,-0.00000320,0.00007102,-0.00000582,-0.
 00000244,-0.00001863,-0.00000791,0.00000221,-0.00000859,0.00000178,0.0
 0000030,-0.00000365,0.00000853,-0.00000251,0.00000147,0.00001037,-0.00
 000036,0.00008650,-0.00090086,0.00046544,-0.00001199,0.00092430,-0.000
 21999,-0.00002804,-0.00001904,0.00005111,-0.00005236,0.00011468,-0.000
 04154,-0.00005657,-0.00013264,-0.00007359,-0.00014415,0.00036714,-0.00
 018915,0.00003602,-0.00007181,0.00000985,-0.00000494,0.00004133,-0.000
 01380,0.00000444,-0.00000855,-0.00000058,-0.00001884,-0.00001811,0.000
 03069,0.00002190,-0.00002927,0.00001851,0.00036596,-0.00004525,0.00007
 441,0.00001850,-0.00015974,-0.00002204,-0.00045601,-0.00066870,-0.0001
 5843,-0.00064707,-0.00067636,-0.00040598,0.00001098,-0.00017330,-0.000
 23968,0.00009620,0.00005382,-0.00002211,0.00112340,0.00027625,-0.00127
 448,-0.00034793,0.00043048,0.00031564,-0.00008216,-0.00000197,0.000056
 54,0.00003565,0.00003008,-0.00000498,-0.00181341,0.00178713,0.00089597
 ,0.00163537,-0.00006254,-0.00280518,-0.00020708,-0.00010466,0.00032676
 ,0.00027275,0.00001677,-0.00017628,0.00033473,0.00032915,0.00014445,0.
 00112729,-0.00036042,0.00160920,-0.00003673,-0.00003837,0.00017305,-0.
 00016568,0.00008963,-0.00003441,-0.00001801,0.00000702,0.00001601,-0.0
 0016143,0.00003624,-0.00021291,-0.00007291,0.00005802,-0.00014168,-0.0
 0032656,-0.00016141,0.00011578,-0.00000347,0.00001438,0.00008440,0.000
 39468,-0.00226931,0.00160638,0.00140332,-0.00031917,0.00406795,-0.0001
 5791,-0.00004956,0.00019207,-0.00003067,-0.00040489,-0.00006799,-0.003
 16233,-0.01005949,-0.00237792,0.00016254,0.00168323,-0.00370883,0.0000
 8757,0.00010719,0.00006200,0.00000263,-0.00006541,0.00001703,-0.000096
 42,0.00011007,-0.00024158,-0.00000378,-0.00000149,0.00008005,-0.000018
 23,-0.00000735,0.00000404,-0.00011490,0.00012514,-0.00003727,0.0000575
 5,-0.00011117,-0.00000514,-0.00008913,-0.00011299,-0.00002823,0.000085
 15,0.00034501,0.00029800,0.00000069,-0.00002374,-0.00002898,-0.0000029
 5,-0.00002174,0.00004319,-0.00115916,0.00005065,-0.00052725,0.00010661
 ,0.00012775,-0.00014793,0.00010089,0.00032340,-0.00042998,0.00282079,-
 0.00098118,-0.00272494,-0.00037606,0.00001981,-0.00097888,0.00009294,-
 0.00039962,0.00063113,-0.02011385,-0.07235992,0.05505860,0.00666636,0.
 00894611,-0.02580866,0.02389190,0.07981295,-0.00006276,0.00016519,-0.0
 0019358,-0.00001657,-0.00009025,0.00048653,0.00001583,-0.00007338,0.00
 007761,-0.00002496,-0.00001013,0.00002410,0.00000246,0.00000436,0.0000
 5986,-0.00001893,-0.00001638,0.00002241,0.00000516,-0.00001498,0.00004
 312,0.00002573,-0.00000277,-0.00002143,-0.00001192,-0.00001132,-0.0000
 0601,0.00000288,0.00000183,-0.00000801,-0.00000128,-0.00001696,-0.0000
 0411,-0.00000946,0.00000819,-0.00009240,0.00002383,0.00003226,-0.00003
 966,0.00005666,0.00007912,-0.00013704,0.00032662,0.00012854,-0.0004340
 2,0.00008692,-0.00001657,0.00003057,-0.00001753,-0.00000059,-0.0000028
 4,0.00000459,0.00000213,-0.00001094,-0.00012725,-0.00000463,-0.0000681
 6,0.00005501,0.00003961,0.00002964,0.00001449,0.00000009,0.00002147,-0
 .00000194,-0.00001145,0.00002049,-0.00001236,0.00000312,0.00001194,0.0
 0230447,0.00215135,-0.00101422,-0.00124066,-0.00026217,-0.00005271,-0.
 00004205,0.00007774,0.00019892,-0.00025719,-0.00026276,0.00005704,0.00
 013016,0.00034728,0.00079634,0.00019796,-0.00192749,0.00017633,0.00002
 650,-0.00000802,0.00003520,0.00003408,-0.00005119,0.00003225,-0.000042
 29,0.00000425,-0.00004124,0.00009585,0.00003351,-0.00017036,-0.0001365
 9,0.00024124,-0.00006732,-0.00053387,-0.00002023,-0.00078624,0.0003748
 6,0.00007569,-0.00018035,0.00090959,0.00013224,-0.00080513,-0.00038998
 ,0.00025196,0.00277620,0.00027465,-0.00029569,-0.00016462,-0.00003534,
 -0.00017566,-0.00059082,-0.00161568,-0.00316582,-0.00316089,0.00083732
 ,0.00024468,0.00004136,0.00006175,-0.00001800,0.00002369,-0.00015560,-
 0.00008039,0.00009294,0.00047527,-0.00014262,-0.00451691,-0.00131830,-
 0.00208940,0.00390842,0.00041447,0.00013302,0.00019676,-0.00037481,0.0
 0037107,0.00050807,-0.00066644,-0.00042433,0.00048295,-0.00013656,0.00
 020358,0.00346015,0.00008397,0.00006944,-0.00038728,0.00015703,-0.0001
 2047,-0.00008234,-0.00003690,-0.00001941,-0.00010924,0.00034807,-0.000
 39151,-0.00077203,0.00016617,0.00018519,0.00046011,0.00058036,-0.00003
 934,-0.00060661,-0.00017387,0.00004201,-0.00065358,-0.00186641,0.00375
 627,-0.00138902,-0.00039788,0.01326620,-0.00135534,-0.00007937,-0.0007
 8528,0.00007319,0.00088862,-0.00292982,0.00137651,0.00622699,-0.004703
 60,0.00441535,-0.00462160,-0.00503597,0.00208220,-0.00010050,0.0000293
 3,0.00004281,0.00000791,0.00014541,0.00004518,0.00026101,-0.00000624,-
 0.00019532,-0.00019499,0.00006718,0.00007375,0.00002423,0.00008409,0.0
 0009497,0.00006437,-0.00025641,0.00001583,-0.00013991,0.00023240,0.000
 12281,0.00032071,0.00025774,-0.00007899,0.00005509,-0.00042056,0.00013
 533,-0.00016495,0.00013733,0.00020217,0.00000605,-0.00006660,-0.000139
 35,-0.00071366,0.00008368,0.00017659,-0.00018980,0.00010487,-0.0000071
 3,0.00032218,0.00013007,0.00044307,-0.00236731,0.00140422,-0.01389215,
 0.00097608,-0.00024523,0.00106413,0.00071332,0.00019032,0.00093078,0.0
 8380075,0.05391816,-0.30173940,0.00756901,-0.00348917,-0.00753428,-0.0
 9377810,-0.05637067,0.31032885,0.00041718,0.00006104,-0.00014301,-0.00
 019562,0.00016414,0.00019987,-0.00004533,0.00010649,-0.00001290,-0.000
 10741,-0.00000749,-0.00000234,-0.00006977,0.00002520,0.00009186,-0.000
 11378,-0.00018701,0.00002656,-0.00003410,0.00004789,-0.00000460,0.0000
 2287,-0.00000552,-0.00000313,-0.00001718,-0.00000609,-0.00001173,0.000
 02248,0.00000219,-0.00001119,-0.00001213,0.00000173,0.00000155,0.00009
 227,-0.00002681,-0.00010149,0.00015349,-0.00002845,-0.00001761,0.00010
 656,-0.00010361,0.00001298,0.00037706,-0.00017455,-0.00020830,-0.00015
 686,0.00003594,0.00003574,0.00003937,0.00002122,-0.00000426,0.00001339
 ,-0.00001510,-0.00001761,0.00019635,0.00005908,-0.00005500,-0.00001651
 ,-0.00004496,0.00002463,-0.00003458,0.00000049,0.00002973,-0.00003316,
 0.00001260,0.00001318,-0.00002658,0.00003162,-0.00000610,0.00038921,-0
 .00132078,0.00102297,-0.00050068,0.00156495,-0.00050241,-0.00021015,0.
 00012168,-0.00007777,-0.00038868,0.00012123,0.00006540,-0.00038906,-0.
 00023072,-0.00065200,-0.00044739,0.00049518,-0.00010140,0.00010641,-0.
 00010546,0.00006118,-0.00003926,0.00013383,0.00003356,0.00003590,-0.00
 003265,0.00000296,-0.00001887,-0.00000116,0.00012173,0.00022060,-0.000
 14142,0.00020125,0.00145073,0.00015760,0.00021545,0.00032855,-0.000397
 73,0.00002448,-0.00039539,-0.00108799,-0.00019135,0.00000575,0.0009692
 8,-0.00609840,0.00000760,0.00014328,0.00075466,0.00046398,0.00084987,0
 .00166837,-0.00378558,0.00495524,0.00674028,-0.00312988,-0.00341619,0.
 00035683,-0.00043689,-0.00004442,0.00044385,-0.00007645,0.00004172,0.0
 0003059,-0.00059373,0.00063178,-0.00083701,0.00021919,-0.00104678,0.00
 048484,0.00020393,0.00009196,0.00005208,0.00021710,0.00010118,0.000015
 05,0.00019752,0.00050478,0.00012041,0.00049530,0.00021586,0.00076035,-
 0.00001638,0.00003050,-0.00001860,-0.00001048,0.00000430,-0.00002228,0
 .00000112,-0.00004667,-0.00000649,-0.00014585,-0.00000379,-0.00006390,
 0.00009133,0.00015514,0.00005376,-0.00031964,-0.00036284,-0.00004081,-
 0.00019788,0.00007531,-0.00014462,-0.00300570,0.00217864,0.00092003,-0
 .00006039,-0.00069106,-0.00000992,-0.00003615,0.00000057,0.00005883,-0
 .00002379,0.00016608,-0.00014415,-0.00076115,0.00048702,-0.00172682,0.
 00107447,0.00079461,-0.00015273,0.00008444,0.00025955,0.00011832,0.000
 02265,0.00002591,0.00001052,0.00009417,0.00016636,-0.00092623,-0.00018
 435,0.00008680,0.00018983,-0.00001694,-0.00004405,0.00013962,0.0004532
 9,0.00051155,0.00010274,-0.00010051,-0.00010067,0.00001638,-0.00006982
 ,-0.00015977,0.00005232,0.00006075,-0.00014147,0.00018590,-0.00013181,
 0.00005209,0.00010729,-0.00016075,-0.00009152,-0.00008012,0.00166471,0
 .00078677,0.00018866,0.00024670,0.00004710,-0.00048289,-0.00014721,0.0
 0015798,0.00058557,-0.01446231,-0.02234041,-0.00180709,-0.00236091,0.0
 0098288,-0.00296128,0.00022009,-0.00015263,0.00100811,-0.11849685,-0.1
 1011044,-0.00269555,0.02051954,0.01939405,-0.00186767,-0.00503434,-0.0
 1114366,0.00274657,0.12670220,0.00064350,-0.00005137,-0.00022368,-0.00
 025979,0.00044078,0.00032589,-0.00007740,0.00017639,-0.00004184,-0.000
 14554,0.00001608,-0.00001083,-0.00012164,0.00004108,0.00014136,-0.0001
 3599,-0.00021313,0.00005213,-0.00003721,0.00005834,-0.00001148,0.00004
 521,-0.00000932,-0.00000528,-0.00002644,-0.00000908,-0.00002001,0.0000
 2657,-0.00000372,-0.00001463,-0.00002896,-0.00000151,-0.00000833,0.000
 14482,-0.00006218,-0.00015360,0.00021099,-0.00007583,-0.00001971,0.000
 12855,-0.00020917,0.00003528,0.00065343,-0.00045109,-0.00032227,-0.000
 32871,0.00009807,0.00007116,0.00007264,0.00002654,-0.00000820,0.000033
 93,-0.00002229,-0.00003725,0.00041706,0.00002660,-0.00010283,-0.000074
 13,-0.00005757,0.00005540,-0.00005406,0.00000717,0.00004390,-0.0000444
 6,0.00003202,0.00001646,-0.00002854,0.00005415,0.00000082,0.00066193,-
 0.00318454,0.00083982,-0.00054794,0.00241448,-0.00068550,-0.00014032,0
 .00026512,0.00018757,-0.00057808,0.00040303,-0.00004188,-0.00074146,-0
 .00053979,-0.00073404,-0.00065780,0.00319657,0.00058215,0.00004595,-0.
 00012478,-0.00002620,0.00004420,0.00015266,-0.00002050,0.00002746,-0.0
 0008292,-0.00002475,-0.00010733,-0.00009123,0.00016095,0.00057006,-0.0
 0058225,0.00038267,0.00351017,-0.00030331,0.00014082,0.00028836,-0.000
 71216,-0.00010099,-0.00079288,-0.00189842,-0.00066789,0.00142248,-0.00
 023018,-0.01101155,-0.00018661,0.00010427,0.00073322,0.00081607,0.0013
 1447,0.00242494,0.00394545,-0.00065356,0.00772498,-0.00475172,0.002268
 47,0.00348251,-0.00063874,-0.00009589,0.00071752,-0.00003905,0.0001236
 4,0.00003631,-0.00051531,0.00038145,-0.00079892,0.00004133,-0.00109022
 ,0.00104833,0.00027305,-0.00005943,0.00007811,0.00042089,0.00016318,-0
 .00032815,0.00039172,0.00040816,0.00124870,0.00043309,0.00007724,0.000
 81720,-0.00000535,0.00011718,-0.00007718,0.00000794,0.00000335,-0.0000
 2388,-0.00009024,0.00004996,0.00001441,-0.00008252,0.00006362,-0.00008
 146,0.00044655,0.00011977,0.00011742,-0.00063169,-0.00049915,-0.000090
 33,-0.00025112,0.00021203,-0.00022132,-0.00102625,0.00201775,-0.000220
 74,0.00004776,-0.00097528,0.00015027,-0.00003277,0.00001113,0.00008945
 ,-0.00006391,0.00025534,-0.00022169,-0.00088719,-0.00015207,-0.0033077
 5,0.00106694,0.00180053,0.00031533,0.00022818,0.00043638,0.00022973,0.
 00003389,-0.00001005,0.00001841,0.00048122,-0.00008634,-0.00076014,-0.
 00017763,0.00007127,0.00007024,-0.00000967,0.00006547,0.00013418,-0.00
 002668,-0.00024059,0.00016900,-0.00005731,0.00022364,0.00017295,0.0003
 4484,0.00035725,-0.00017250,-0.00019600,-0.00053324,0.00000848,-0.0001
 1020,0.00011296,0.00017948,0.00001927,-0.00021308,-0.00016118,0.001711
 59,0.00063675,-0.00110938,-0.00058598,-0.00023221,0.00004942,-0.000136
 21,0.00001888,0.00062029,-0.00117926,0.00984603,-0.00534758,0.00322725
 ,0.00102991,0.00273502,0.00113374,0.00043806,0.00061716,-0.11378094,-0
 .29275278,-0.00507382,-0.00819993,-0.01857876,0.00088184,-0.00120876,-
 0.00533454,0.00523751,0.11578163,0.30028583,0.00017321,0.00005197,-0.0
 0014436,-0.00008706,0.00008677,0.00027348,-0.00001754,0.00002707,0.000
 00948,-0.00005014,-0.00000173,0.00000652,-0.00003118,0.00001427,0.0000
 5923,-0.00004635,-0.00006973,0.00002334,-0.00001067,0.00001333,0.00001
 458,0.00002206,-0.00000425,-0.00000824,-0.00001275,-0.00000662,-0.0000
 0801,0.00000903,-0.00000028,-0.00000711,-0.00000972,-0.00000617,-0.000
 00423,0.00003543,-0.00001351,-0.00007472,0.00006771,-0.00000847,-0.000
 01870,0.00005679,-0.00003227,-0.00003401,0.00031215,-0.00010084,-0.000
 24266,-0.00005120,0.00001988,0.00003060,0.00001140,0.00000707,-0.00000
 357,0.00001332,-0.00000497,-0.00001498,0.00005650,0.00000231,-0.000064
 16,0.00000792,0.00000762,0.00003103,-0.00000836,0.00000160,0.00001943,
 -0.00001251,0.00000414,0.00001142,-0.00001229,0.00001672,0.00000186,0.
 00078425,-0.00075805,0.00059208,-0.00055543,0.00120274,-0.00031159,-0.
 00009788,0.00006475,0.00011449,-0.00027308,0.00003632,-0.00000424,-0.0
 0017351,-0.00014701,0.00006297,-0.00043319,-0.00028123,-0.00036235,0.0
 0012514,-0.00009460,0.00005677,0.00000839,0.00004350,0.00001860,-0.000
 00038,-0.00001771,-0.00001789,-0.00000555,-0.00001431,-0.00002326,0.00
 005264,0.00005121,0.00007382,0.00105437,-0.00010727,-0.00031929,0.0002
 5576,-0.00019926,-0.00007036,-0.00013249,-0.00066430,-0.00022724,-0.00
 172788,-0.00262067,-0.00211977,0.00010749,-0.00021838,-0.00004217,0.00
 016748,0.00036092,0.00020438,0.00467900,0.00338292,-0.00757414,-0.0006
 7604,0.00292045,0.00216160,-0.00014738,-0.00004447,0.00027968,-0.00006
 230,0.00000260,0.00004228,-0.00038067,0.00038128,-0.00063826,0.0000367
 7,-0.00036665,0.00035603,0.00008385,0.00003036,0.00012378,0.00001469,0
 .00004013,0.00009882,0.00010533,0.00026710,0.00013111,0.00032667,0.000
 09254,0.00066967,-0.00001285,0.00002114,-0.00005043,0.00000626,-0.0000
 1725,-0.00002963,0.00001015,-0.00002528,-0.00002335,-0.00004403,-0.000
 03811,-0.00010481,-0.00003527,0.00005703,0.00015757,-0.00007992,-0.000
 15704,-0.00012932,-0.00007986,0.00001595,-0.00013304,0.00020686,0.0002
 9127,-0.00054749,-0.00011163,0.00067865,0.00020761,-0.00002440,-0.0001
 3226,0.00010172,0.00004574,-0.00013491,0.00002216,-0.00112967,-0.00248
 326,-0.00039413,-0.00009548,0.00075812,-0.00157646,0.00003628,0.000145
 86,0.00007930,0.00000949,0.00002097,0.00002341,0.00010379,-0.00013845,
 0.00035673,-0.00004292,0.00003027,-0.00004213,0.00000698,0.00006984,-0
 .00005496,-0.00027789,-0.00040980,-0.00008205,0.00000452,0.00020985,0.
 00009501,0.00043780,0.00019736,-0.00008254,0.00015725,-0.00013915,-0.0
 0027505,-0.00000475,0.00004843,0.00004084,-0.00002187,0.00027372,0.000
 07796,-0.00017914,-0.00181164,0.00099000,0.00042762,0.00092003,-0.0006
 7066,0.00024566,0.00055931,0.00031308,-0.01053853,-0.02171249,-0.00066
 796,-0.00283751,0.00045140,-0.00233386,0.00078396,0.00031690,0.0010577
 1,-0.00357575,-0.00575408,-0.06245851,-0.00473834,-0.00765839,-0.00188
 606,0.01568178,0.03306870,0.00581310,0.00211390,-0.00086952,0.06907457
 \\0.00000105,-0.00000902,0.00000187,0.00000438,-0.00000572,-0.00000708
 ,0.00000238,0.00000790,-0.00000789,-0.00000635,-0.00000560,0.00000162,
 0.00000418,-0.00000036,0.00000027,-0.00000661,0.00000132,-0.00000339,0
 .00000115,-0.00000008,-0.00000040,-0.00000050,-0.00000250,-0.00000303,
 0.00000239,-0.00000419,-0.00000549,-0.00000106,-0.00000306,-0.00000515
 ,0.00000425,-0.00000319,-0.00000292,-0.00000569,-0.00000107,-0.0000091
 8,0.00000708,-0.00000282,-0.00000809,-0.00000040,-0.00000303,0.0000009
 0,0.00000957,-0.00000323,0.00000118,0.00000369,-0.00000586,-0.00000114
 ,0.00000115,-0.00000074,-0.00000041,-0.00000065,0.00000124,0.00000072,
 -0.00000066,0.00000351,-0.00000119,0.00000038,-0.00000160,0.00000158,0
 .00000341,-0.00000340,-0.00000043,0.00000070,-0.00000444,-0.00000684,-
 0.00000126,-0.00000395,-0.00000708,-0.00000037,-0.00000839,0.00000291,
 0.00000658,0.00001893,-0.00000264,-0.00000096,-0.00000044,-0.00000274,
 -0.00000861,-0.00000429,0.00000037,0.00000506,-0.00000442,-0.00000178,
 0.00000720,0.00000956,0.00000367,0.00000213,-0.00000339,-0.00000263,0.
 00000055,-0.00000063,0.00000181,0.00000288,-0.00000113,-0.00000194,0.0
 0000276,-0.00000153,0.00000093,0.00000355,-0.00000263,0.00000004,0.000
 00600,-0.00000233,0.00000547,0.00000788,-0.00000352,-0.00000142,-0.000
 00086,-0.00001772,-0.00000862,0.00000251,0.00000394,0.00000305,0.00000
 435,0.00000062,0.00000460,0.00000257,0.00000009,0.00000353,-0.00000214
 ,-0.00000421,0.00000515,0.00000609,0.00000312,0.00000111,-0.00000766,0
 .00001265,-0.00000469,0.00000126,-0.00000258,-0.00000127,-0.00000778,0
 .00000291,0.00000516,0.00001267,-0.00000550,-0.00000942,-0.00000451,0.
 00001327,-0.00000691,-0.00001466,-0.00000943,0.00000616,0.00000633,0.0
 0000913,0.00001473,0.00000064,-0.00000060,0.00000040,-0.00000188,0.000
 00209,0.00000219,-0.00000309,-0.00000003,0.00000024,0.00000139,0.00000
 114,-0.00000586,-0.00000124,0.00000041,-0.00000189,-0.00000025,-0.0000
 0246,-0.00000027,0.00001234,0.00000056,-0.00000511,-0.00000171,-0.0000
 0724,0.00000731,-0.00001010,-0.00000233,0.00000531,0.00000003,-0.00000
 529,0.00001233,0.00000217,0.00000354,0.00000730,0.00000593,0.00000032,
 0.00000006,0.00000462,0.00000083,-0.00003325,0.00000066,-0.00000059,0.
 00001606,-0.00000571,0.00000137,-0.00000466,-0.00000394,-0.00000138,-0
 .00000586,-0.00000690,0.00000578,0.00000380,-0.00000355,0.00000150,-0.
 00000141,-0.00000354,0.00000296,-0.00000068,-0.00000427,0.00000266,0.0
 0000249,-0.00000397,0.00000070,0.00000052,-0.00000396,0.00000132,-0.00
 000059,-0.00000182,0.00000116,0.00000207,-0.00000521,0.00000479,0.0000
 0360,-0.00000368,0.00000404,0.00000178,-0.00000479,0.00000492,0.000006
 26,-0.00000297,0.00000198,0.00000376,-0.00000236,0.00000401,0.00000416
 ,-0.00000198,0.00000277,0.00000183,-0.00000160,0.00000435,0.00000485,-
 0.00000041,0.00000240,0.00000551,-0.00000191,0.00000974,-0.00000379,0.
 00000095,0.00000415,0.00000112,0.00000061,0.00000160,0.00001534,-0.000
 00390,-0.00000338,0.00000198\\\@


 IT IS BY LOGIC THAT WE PROVE, BUT BY INTUITION THAT WE DISCOVER.
     -- J.H.POINCARE (1854-1912)
 Job cpu time:      18 days  4 hours 59 minutes 36.0 seconds.
 File lengths (MBytes):  RWF=  17301 Int=      0 D2E=      0 Chk=     98 Scr=      1
 Normal termination of Gaussian 09 at Fri Apr  8 18:41:42 2016.
