 Entering Gaussian System, Link 0=g09
 Initial command:
 /share/apps//g09/l1.exe "/scratch/Gau-28974.inp" -scrdir="/scratch/"
 Entering Link 1 = /share/apps//g09/l1.exe PID=     28975.
  
 Copyright (c) 1988,1990,1992,1993,1995,1998,2003,2009,2013,
            Gaussian, Inc.  All Rights Reserved.
  
 This is part of the Gaussian(R) 09 program.  It is based on
 the Gaussian(R) 03 system (copyright 2003, Gaussian, Inc.),
 the Gaussian(R) 98 system (copyright 1998, Gaussian, Inc.),
 the Gaussian(R) 94 system (copyright 1995, Gaussian, Inc.),
 the Gaussian 92(TM) system (copyright 1992, Gaussian, Inc.),
 the Gaussian 90(TM) system (copyright 1990, Gaussian, Inc.),
 the Gaussian 88(TM) system (copyright 1988, Gaussian, Inc.),
 the Gaussian 86(TM) system (copyright 1986, Carnegie Mellon
 University), and the Gaussian 82(TM) system (copyright 1983,
 Carnegie Mellon University). Gaussian is a federally registered
 trademark of Gaussian, Inc.
  
 This software contains proprietary and confidential information,
 including trade secrets, belonging to Gaussian, Inc.
  
 This software is provided under written license and may be
 used, copied, transmitted, or stored only in accord with that
 written license.
  
 The following legend is applicable only to US Government
 contracts under FAR:
  
                    RESTRICTED RIGHTS LEGEND
  
 Use, reproduction and disclosure by the US Government is
 subject to restrictions as set forth in subparagraphs (a)
 and (c) of the Commercial Computer Software - Restricted
 Rights clause in FAR 52.227-19.
  
 Gaussian, Inc.
 340 Quinnipiac St., Bldg. 40, Wallingford CT 06492
  
  
 ---------------------------------------------------------------
 Warning -- This program may not be used in any manner that
 competes with the business of Gaussian, Inc. or will provide
 assistance to any competitor of Gaussian, Inc.  The licensee
 of this program is prohibited from giving any competitor of
 Gaussian, Inc. access to this program.  By using this program,
 the user acknowledges that Gaussian, Inc. is engaged in the
 business of creating and licensing software in the field of
 computational chemistry and represents and warrants to the
 licensee that it is not a competitor of Gaussian, Inc. and that
 it will not use this program in any manner prohibited above.
 ---------------------------------------------------------------
  

 Cite this work as:
 Gaussian 09, Revision D.01,
 M. J. Frisch, G. W. Trucks, H. B. Schlegel, G. E. Scuseria, 
 M. A. Robb, J. R. Cheeseman, G. Scalmani, V. Barone, B. Mennucci, 
 G. A. Petersson, H. Nakatsuji, M. Caricato, X. Li, H. P. Hratchian, 
 A. F. Izmaylov, J. Bloino, G. Zheng, J. L. Sonnenberg, M. Hada, 
 M. Ehara, K. Toyota, R. Fukuda, J. Hasegawa, M. Ishida, T. Nakajima, 
 Y. Honda, O. Kitao, H. Nakai, T. Vreven, J. A. Montgomery, Jr., 
 J. E. Peralta, F. Ogliaro, M. Bearpark, J. J. Heyd, E. Brothers, 
 K. N. Kudin, V. N. Staroverov, T. Keith, R. Kobayashi, J. Normand, 
 K. Raghavachari, A. Rendell, J. C. Burant, S. S. Iyengar, J. Tomasi, 
 M. Cossi, N. Rega, J. M. Millam, M. Klene, J. E. Knox, J. B. Cross, 
 V. Bakken, C. Adamo, J. Jaramillo, R. Gomperts, R. E. Stratmann, 
 O. Yazyev, A. J. Austin, R. Cammi, C. Pomelli, J. W. Ochterski, 
 R. L. Martin, K. Morokuma, V. G. Zakrzewski, G. A. Voth, 
 P. Salvador, J. J. Dannenberg, S. Dapprich, A. D. Daniels, 
 O. Farkas, J. B. Foresman, J. V. Ortiz, J. Cioslowski, 
 and D. J. Fox, Gaussian, Inc., Wallingford CT, 2013.
 
 ******************************************
 Gaussian 09:  EM64L-G09RevD.01 24-Apr-2013
                24-Mar-2016 
 ******************************************
 %nproc=20
 Will use up to   20 processors via shared memory.
 %mem=80GB
 %chk=Tri_A154_of.chk
 -------------------------------------------------------------------
 #P PBE1PBE/6-311+G(d,p) opt optcyc=999 freq EmpiricalDispersion=GD3
 -------------------------------------------------------------------
 1/6=999,14=-1,18=20,19=15,26=3,38=1/1,3;
 2/9=110,12=2,17=6,18=5,40=1/2;
 3/5=4,6=6,7=111,11=2,16=1,25=1,30=1,71=1,74=-13,124=31/1,2,3;
 4//1;
 5/5=2,38=5/2;
 6/7=2,8=2,9=2,10=2,28=1/1;
 7//1,2,3,16;
 1/6=999,14=-1,18=20,19=15,26=3/3(2);
 2/9=110/2;
 99//99;
 2/9=110/2;
 3/5=4,6=6,7=111,11=2,16=1,25=1,30=1,71=1,74=-13,124=31/1,2,3;
 4/5=5,16=3,69=1/1;
 5/5=2,38=5/2;
 7//1,2,3,16;
 1/6=999,14=-1,18=20,19=15,26=3/3(-5);
 2/9=110/2;
 6/7=2,8=2,9=2,10=2,19=2,28=1/1;
 99/9=1/99;
 Leave Link    1 at Thu Mar 24 14:16:02 2016, MaxMem= 10737418240 cpu:         3.2
 (Enter /share/apps//g09/l101.exe)
 -------
 disacch
 -------
 Symbolic Z-matrix:
 Charge =  1 Multiplicity = 1
 O                    -1.92561  -1.85015  -1.66306 
 C                    -3.10649  -1.17799  -1.29816 
 C                    -3.51287  -0.19497  -2.38414 
 C                    -3.7184   -0.93727  -3.68842 
 C                    -2.50823  -1.78639  -4.03145 
 C                    -2.09324  -2.62946  -2.83161 
 C                    -0.82185  -3.41974  -3.06576 
 O                     0.30602  -2.60631  -3.3404 
 O                    -1.43014  -0.95664  -4.43347 
 O                    -3.91459  -0.05587  -4.76563 
 O                    -4.71841   0.44488  -2.08613 
 O                    -2.82625  -0.49251  -0.12684 
 C                    -3.70731  -0.63844   0.97315 
 C                    -4.02528   0.73613   1.52226 
 O                    -4.67142   1.50682   0.53693 
 C                    -2.74867   1.41771   1.97199 
 C                    -1.94532   0.53184   2.92837 
 O                    -1.79988  -0.7854    2.40951 
 C                    -3.02485  -1.42807   2.07933 
 C                    -2.70156  -2.85473   1.68992 
 O                    -2.15068  -3.58997   2.74652 
 O                    -0.67911   1.02127   3.21481 
 C                     0.17379   1.30946   2.12648 
 C                     0.57212   2.77184   2.14167 
 C                     1.50682   3.05021   0.98292 
 C                     2.67538   2.07983   0.93566 
 O                     2.22762   0.74501   1.04396 
 C                     1.45208   0.47066   2.19458 
 C                     1.19808  -1.01869   2.207 
 O                     0.44587  -1.44625   1.08826 
 O                     3.24826   2.22896  -0.30944 
 C                     4.49466   1.56841  -0.5017 
 C                     4.74283   1.36186  -1.97961 
 C                     4.04007   0.18741  -2.66464 
 C                     2.58521   0.35826  -3.10984 
 C                     1.51299   0.23996  -2.04405 
 N                     1.5078   -1.10923  -1.42065 
 O                     1.93084   4.38102   1.11077 
 O                    -0.57051   3.59056   2.02697 
 O                    -3.1065    2.62261   2.5817 
 H                    -3.91687  -1.90756  -1.13445 
 H                    -2.68547   0.51834  -2.49879 
 H                    -4.58712  -1.59907  -3.56712 
 H                    -2.77422  -2.46541  -4.85059 
 H                    -2.89723  -3.36461  -2.67091 
 H                    -0.99134  -4.11878  -3.89041 
 H                    -0.5902   -4.00092  -2.17307 
 H                     0.01342  -1.94425  -3.98756 
 H                    -1.80008  -0.2951   -5.02857 
 H                    -4.57673   0.58977  -4.50467 
 H                    -4.64034   0.93798  -1.25414 
 H                    -4.63394  -1.1306    0.664 
 H                    -4.68704   0.60966   2.38886 
 H                    -4.70836   2.4125    0.85907 
 H                    -2.16228   1.59971   1.06654 
 H                    -2.46063   0.48469   3.89356 
 H                    -3.67086  -1.4467    2.96636 
 H                    -3.63361  -3.35344   1.41584 
 H                    -2.04985  -2.85545   0.80775 
 H                    -1.30657  -3.20365   2.98458 
 H                    -0.31279   1.07836   1.17509 
 H                     1.08703   2.98314   3.08798 
 H                     0.93672   2.90728   0.05423 
 H                     3.39239   2.29598   1.74441 
 H                     2.00885   0.72839   3.10667 
 H                     2.15664  -1.53765   2.17862 
 H                     0.68926  -1.28407   3.13563 
 H                    -0.48239  -1.22908   1.28318 
 H                     4.49013   0.60886   0.02449 
 H                     5.28735   2.18825  -0.07089 
 H                     5.81858   1.2035   -2.08937 
 H                     4.52201   2.29381  -2.50789 
 H                     4.16272  -0.7082   -2.04074 
 H                     4.60944  -0.03906  -3.56844 
 H                     2.3787   -0.37536  -3.89517 
 H                     2.46854   1.33834  -3.57874 
 H                     1.66711   0.9643   -1.25335 
 H                     0.52214   0.3817   -2.47626 
 H                     2.46058  -1.41084  -1.23755 
 H                     1.05657  -1.78951  -2.07588 
 H                     1.01269  -1.13284  -0.50246 
 H                     2.42424   4.63036   0.32683 
 H                    -0.26719   4.49765   1.929 
 H                    -2.31629   3.18096   2.58458 
 
 NAtoms=     84 NQM=       84 NQMF=       0 NMMI=      0 NMMIF=      0
                NMic=       0 NMicF=      0.
                    Isotopes and Nuclear Properties:
 (Nuclear quadrupole moments (NQMom) in fm**2, nuclear magnetic moments (NMagM)
  in nuclear magnetons)

  Atom         1           2           3           4           5           6           7           8           9          10
 IAtWgt=          16          12          12          12          12          12          12          16          16          16
 AtmWgt=  15.9949146  12.0000000  12.0000000  12.0000000  12.0000000  12.0000000  12.0000000  15.9949146  15.9949146  15.9949146
 NucSpn=           0           0           0           0           0           0           0           0           0           0
 AtZEff=   0.0000000   0.0000000   0.0000000   0.0000000   0.0000000   0.0000000   0.0000000   0.0000000   0.0000000   0.0000000
 NQMom=    0.0000000   0.0000000   0.0000000   0.0000000   0.0000000   0.0000000   0.0000000   0.0000000   0.0000000   0.0000000
 NMagM=    0.0000000   0.0000000   0.0000000   0.0000000   0.0000000   0.0000000   0.0000000   0.0000000   0.0000000   0.0000000
 AtZNuc=   8.0000000   6.0000000   6.0000000   6.0000000   6.0000000   6.0000000   6.0000000   8.0000000   8.0000000   8.0000000

  Atom        11          12          13          14          15          16          17          18          19          20
 IAtWgt=          16          16          12          12          16          12          12          16          12          12
 AtmWgt=  15.9949146  15.9949146  12.0000000  12.0000000  15.9949146  12.0000000  12.0000000  15.9949146  12.0000000  12.0000000
 NucSpn=           0           0           0           0           0           0           0           0           0           0
 AtZEff=   0.0000000   0.0000000   0.0000000   0.0000000   0.0000000   0.0000000   0.0000000   0.0000000   0.0000000   0.0000000
 NQMom=    0.0000000   0.0000000   0.0000000   0.0000000   0.0000000   0.0000000   0.0000000   0.0000000   0.0000000   0.0000000
 NMagM=    0.0000000   0.0000000   0.0000000   0.0000000   0.0000000   0.0000000   0.0000000   0.0000000   0.0000000   0.0000000
 AtZNuc=   8.0000000   8.0000000   6.0000000   6.0000000   8.0000000   6.0000000   6.0000000   8.0000000   6.0000000   6.0000000

  Atom        21          22          23          24          25          26          27          28          29          30
 IAtWgt=          16          16          12          12          12          12          16          12          12          16
 AtmWgt=  15.9949146  15.9949146  12.0000000  12.0000000  12.0000000  12.0000000  15.9949146  12.0000000  12.0000000  15.9949146
 NucSpn=           0           0           0           0           0           0           0           0           0           0
 AtZEff=   0.0000000   0.0000000   0.0000000   0.0000000   0.0000000   0.0000000   0.0000000   0.0000000   0.0000000   0.0000000
 NQMom=    0.0000000   0.0000000   0.0000000   0.0000000   0.0000000   0.0000000   0.0000000   0.0000000   0.0000000   0.0000000
 NMagM=    0.0000000   0.0000000   0.0000000   0.0000000   0.0000000   0.0000000   0.0000000   0.0000000   0.0000000   0.0000000
 AtZNuc=   8.0000000   8.0000000   6.0000000   6.0000000   6.0000000   6.0000000   8.0000000   6.0000000   6.0000000   8.0000000

  Atom        31          32          33          34          35          36          37          38          39          40
 IAtWgt=          16          12          12          12          12          12          14          16          16          16
 AtmWgt=  15.9949146  12.0000000  12.0000000  12.0000000  12.0000000  12.0000000  14.0030740  15.9949146  15.9949146  15.9949146
 NucSpn=           0           0           0           0           0           0           2           0           0           0
 AtZEff=   0.0000000   0.0000000   0.0000000   0.0000000   0.0000000   0.0000000   0.0000000   0.0000000   0.0000000   0.0000000
 NQMom=    0.0000000   0.0000000   0.0000000   0.0000000   0.0000000   0.0000000   2.0440000   0.0000000   0.0000000   0.0000000
 NMagM=    0.0000000   0.0000000   0.0000000   0.0000000   0.0000000   0.0000000   0.4037610   0.0000000   0.0000000   0.0000000
 AtZNuc=   8.0000000   6.0000000   6.0000000   6.0000000   6.0000000   6.0000000   7.0000000   8.0000000   8.0000000   8.0000000

  Atom        41          42          43          44          45          46          47          48          49          50
 IAtWgt=           1           1           1           1           1           1           1           1           1           1
 AtmWgt=   1.0078250   1.0078250   1.0078250   1.0078250   1.0078250   1.0078250   1.0078250   1.0078250   1.0078250   1.0078250
 NucSpn=           1           1           1           1           1           1           1           1           1           1
 AtZEff=   0.0000000   0.0000000   0.0000000   0.0000000   0.0000000   0.0000000   0.0000000   0.0000000   0.0000000   0.0000000
 NQMom=    0.0000000   0.0000000   0.0000000   0.0000000   0.0000000   0.0000000   0.0000000   0.0000000   0.0000000   0.0000000
 NMagM=    2.7928460   2.7928460   2.7928460   2.7928460   2.7928460   2.7928460   2.7928460   2.7928460   2.7928460   2.7928460
 AtZNuc=   1.0000000   1.0000000   1.0000000   1.0000000   1.0000000   1.0000000   1.0000000   1.0000000   1.0000000   1.0000000

  Atom        51          52          53          54          55          56          57          58          59          60
 IAtWgt=           1           1           1           1           1           1           1           1           1           1
 AtmWgt=   1.0078250   1.0078250   1.0078250   1.0078250   1.0078250   1.0078250   1.0078250   1.0078250   1.0078250   1.0078250
 NucSpn=           1           1           1           1           1           1           1           1           1           1
 AtZEff=   0.0000000   0.0000000   0.0000000   0.0000000   0.0000000   0.0000000   0.0000000   0.0000000   0.0000000   0.0000000
 NQMom=    0.0000000   0.0000000   0.0000000   0.0000000   0.0000000   0.0000000   0.0000000   0.0000000   0.0000000   0.0000000
 NMagM=    2.7928460   2.7928460   2.7928460   2.7928460   2.7928460   2.7928460   2.7928460   2.7928460   2.7928460   2.7928460
 AtZNuc=   1.0000000   1.0000000   1.0000000   1.0000000   1.0000000   1.0000000   1.0000000   1.0000000   1.0000000   1.0000000

  Atom        61          62          63          64          65          66          67          68          69          70
 IAtWgt=           1           1           1           1           1           1           1           1           1           1
 AtmWgt=   1.0078250   1.0078250   1.0078250   1.0078250   1.0078250   1.0078250   1.0078250   1.0078250   1.0078250   1.0078250
 NucSpn=           1           1           1           1           1           1           1           1           1           1
 AtZEff=   0.0000000   0.0000000   0.0000000   0.0000000   0.0000000   0.0000000   0.0000000   0.0000000   0.0000000   0.0000000
 NQMom=    0.0000000   0.0000000   0.0000000   0.0000000   0.0000000   0.0000000   0.0000000   0.0000000   0.0000000   0.0000000
 NMagM=    2.7928460   2.7928460   2.7928460   2.7928460   2.7928460   2.7928460   2.7928460   2.7928460   2.7928460   2.7928460
 AtZNuc=   1.0000000   1.0000000   1.0000000   1.0000000   1.0000000   1.0000000   1.0000000   1.0000000   1.0000000   1.0000000

  Atom        71          72          73          74          75          76          77          78          79          80
 IAtWgt=           1           1           1           1           1           1           1           1           1           1
 AtmWgt=   1.0078250   1.0078250   1.0078250   1.0078250   1.0078250   1.0078250   1.0078250   1.0078250   1.0078250   1.0078250
 NucSpn=           1           1           1           1           1           1           1           1           1           1
 AtZEff=   0.0000000   0.0000000   0.0000000   0.0000000   0.0000000   0.0000000   0.0000000   0.0000000   0.0000000   0.0000000
 NQMom=    0.0000000   0.0000000   0.0000000   0.0000000   0.0000000   0.0000000   0.0000000   0.0000000   0.0000000   0.0000000
 NMagM=    2.7928460   2.7928460   2.7928460   2.7928460   2.7928460   2.7928460   2.7928460   2.7928460   2.7928460   2.7928460
 AtZNuc=   1.0000000   1.0000000   1.0000000   1.0000000   1.0000000   1.0000000   1.0000000   1.0000000   1.0000000   1.0000000

  Atom        81          82          83          84
 IAtWgt=           1           1           1           1
 AtmWgt=   1.0078250   1.0078250   1.0078250   1.0078250
 NucSpn=           1           1           1           1
 AtZEff=   0.0000000   0.0000000   0.0000000   0.0000000
 NQMom=    0.0000000   0.0000000   0.0000000   0.0000000
 NMagM=    2.7928460   2.7928460   2.7928460   2.7928460
 AtZNuc=   1.0000000   1.0000000   1.0000000   1.0000000
 Leave Link  101 at Thu Mar 24 14:16:03 2016, MaxMem= 10737418240 cpu:         7.5
 (Enter /share/apps//g09/l103.exe)

 GradGradGradGradGradGradGradGradGradGradGradGradGradGradGradGradGradGrad
 Berny optimization.
 Initialization pass.
                           ----------------------------
                           !    Initial Parameters    !
                           ! (Angstroms and Degrees)  !
 --------------------------                            --------------------------
 ! Name  Definition              Value          Derivative Info.                !
 --------------------------------------------------------------------------------
 ! R1    R(1,2)                  1.4069         estimate D2E/DX2                !
 ! R2    R(1,6)                  1.4145         estimate D2E/DX2                !
 ! R3    R(2,3)                  1.5201         estimate D2E/DX2                !
 ! R4    R(2,12)                 1.3858         estimate D2E/DX2                !
 ! R5    R(2,41)                 1.1026         estimate D2E/DX2                !
 ! R6    R(3,4)                  1.5147         estimate D2E/DX2                !
 ! R7    R(3,11)                 1.397          estimate D2E/DX2                !
 ! R8    R(3,42)                 1.0984         estimate D2E/DX2                !
 ! R9    R(4,5)                  1.5176         estimate D2E/DX2                !
 ! R10   R(4,10)                 1.4056         estimate D2E/DX2                !
 ! R11   R(4,43)                 1.0988         estimate D2E/DX2                !
 ! R12   R(5,6)                  1.524          estimate D2E/DX2                !
 ! R13   R(5,9)                  1.4186         estimate D2E/DX2                !
 ! R14   R(5,44)                 1.0967         estimate D2E/DX2                !
 ! R15   R(6,7)                  1.5152         estimate D2E/DX2                !
 ! R16   R(6,45)                 1.1012         estimate D2E/DX2                !
 ! R17   R(7,8)                  1.4175         estimate D2E/DX2                !
 ! R18   R(7,46)                 1.0943         estimate D2E/DX2                !
 ! R19   R(7,47)                 1.0901         estimate D2E/DX2                !
 ! R20   R(8,48)                 0.971          estimate D2E/DX2                !
 ! R21   R(9,49)                 0.9637         estimate D2E/DX2                !
 ! R22   R(10,50)                0.9609         estimate D2E/DX2                !
 ! R23   R(11,51)                0.9703         estimate D2E/DX2                !
 ! R24   R(12,13)                1.4169         estimate D2E/DX2                !
 ! R25   R(13,14)                1.514          estimate D2E/DX2                !
 ! R26   R(13,19)                1.5208         estimate D2E/DX2                !
 ! R27   R(13,52)                1.0938         estimate D2E/DX2                !
 ! R28   R(14,15)                1.408          estimate D2E/DX2                !
 ! R29   R(14,16)                1.5154         estimate D2E/DX2                !
 ! R30   R(14,53)                1.0977         estimate D2E/DX2                !
 ! R31   R(15,54)                0.962          estimate D2E/DX2                !
 ! R32   R(16,17)                1.5313         estimate D2E/DX2                !
 ! R33   R(16,40)                1.397          estimate D2E/DX2                !
 ! R34   R(16,55)                1.094          estimate D2E/DX2                !
 ! R35   R(17,18)                1.4232         estimate D2E/DX2                !
 ! R36   R(17,22)                1.3874         estimate D2E/DX2                !
 ! R37   R(17,56)                1.0952         estimate D2E/DX2                !
 ! R38   R(18,19)                1.4222         estimate D2E/DX2                !
 ! R39   R(19,20)                1.5138         estimate D2E/DX2                !
 ! R40   R(19,57)                1.0975         estimate D2E/DX2                !
 ! R41   R(20,21)                1.4002         estimate D2E/DX2                !
 ! R42   R(20,58)                1.092          estimate D2E/DX2                !
 ! R43   R(20,59)                1.0968         estimate D2E/DX2                !
 ! R44   R(21,60)                0.9584         estimate D2E/DX2                !
 ! R45   R(22,23)                1.4124         estimate D2E/DX2                !
 ! R46   R(23,24)                1.5157         estimate D2E/DX2                !
 ! R47   R(23,28)                1.5304         estimate D2E/DX2                !
 ! R48   R(23,61)                1.0933         estimate D2E/DX2                !
 ! R49   R(24,25)                1.5145         estimate D2E/DX2                !
 ! R50   R(24,39)                1.4103         estimate D2E/DX2                !
 ! R51   R(24,62)                1.0979         estimate D2E/DX2                !
 ! R52   R(25,26)                1.5197         estimate D2E/DX2                !
 ! R53   R(25,38)                1.4026         estimate D2E/DX2                !
 ! R54   R(25,63)                1.099          estimate D2E/DX2                !
 ! R55   R(26,27)                1.4121         estimate D2E/DX2                !
 ! R56   R(26,31)                1.3787         estimate D2E/DX2                !
 ! R57   R(26,64)                1.1022         estimate D2E/DX2                !
 ! R58   R(27,28)                1.4144         estimate D2E/DX2                !
 ! R59   R(28,29)                1.5109         estimate D2E/DX2                !
 ! R60   R(28,65)                1.0992         estimate D2E/DX2                !
 ! R61   R(29,30)                1.4143         estimate D2E/DX2                !
 ! R62   R(29,66)                1.0904         estimate D2E/DX2                !
 ! R63   R(29,67)                1.0916         estimate D2E/DX2                !
 ! R64   R(30,68)                0.973          estimate D2E/DX2                !
 ! R65   R(31,32)                1.4237         estimate D2E/DX2                !
 ! R66   R(32,33)                1.5128         estimate D2E/DX2                !
 ! R67   R(32,69)                1.0944         estimate D2E/DX2                !
 ! R68   R(32,70)                1.0946         estimate D2E/DX2                !
 ! R69   R(33,34)                1.5305         estimate D2E/DX2                !
 ! R70   R(33,71)                1.0929         estimate D2E/DX2                !
 ! R71   R(33,72)                1.0938         estimate D2E/DX2                !
 ! R72   R(34,35)                1.531          estimate D2E/DX2                !
 ! R73   R(34,73)                1.0984         estimate D2E/DX2                !
 ! R74   R(34,74)                1.0919         estimate D2E/DX2                !
 ! R75   R(35,36)                1.5164         estimate D2E/DX2                !
 ! R76   R(35,75)                1.0943         estimate D2E/DX2                !
 ! R77   R(35,76)                1.0927         estimate D2E/DX2                !
 ! R78   R(36,37)                1.4863         estimate D2E/DX2                !
 ! R79   R(36,77)                1.0833         estimate D2E/DX2                !
 ! R80   R(36,78)                1.0903         estimate D2E/DX2                !
 ! R81   R(37,79)                1.016          estimate D2E/DX2                !
 ! R82   R(37,80)                1.0468         estimate D2E/DX2                !
 ! R83   R(37,81)                1.0434         estimate D2E/DX2                !
 ! R84   R(38,82)                0.9593         estimate D2E/DX2                !
 ! R85   R(39,83)                0.9615         estimate D2E/DX2                !
 ! R86   R(40,84)                0.9676         estimate D2E/DX2                !
 ! A1    A(2,1,6)              112.2097         estimate D2E/DX2                !
 ! A2    A(1,2,3)              110.3675         estimate D2E/DX2                !
 ! A3    A(1,2,12)             106.6071         estimate D2E/DX2                !
 ! A4    A(1,2,41)             109.8323         estimate D2E/DX2                !
 ! A5    A(3,2,12)             109.7564         estimate D2E/DX2                !
 ! A6    A(3,2,41)             109.7226         estimate D2E/DX2                !
 ! A7    A(12,2,41)            110.5132         estimate D2E/DX2                !
 ! A8    A(2,3,4)              109.5429         estimate D2E/DX2                !
 ! A9    A(2,3,11)             111.9926         estimate D2E/DX2                !
 ! A10   A(2,3,42)             107.0457         estimate D2E/DX2                !
 ! A11   A(4,3,11)             106.9209         estimate D2E/DX2                !
 ! A12   A(4,3,42)             109.3034         estimate D2E/DX2                !
 ! A13   A(11,3,42)            112.0158         estimate D2E/DX2                !
 ! A14   A(3,4,5)              111.1381         estimate D2E/DX2                !
 ! A15   A(3,4,10)             111.8104         estimate D2E/DX2                !
 ! A16   A(3,4,43)             107.9012         estimate D2E/DX2                !
 ! A17   A(5,4,10)             106.7934         estimate D2E/DX2                !
 ! A18   A(5,4,43)             108.5664         estimate D2E/DX2                !
 ! A19   A(10,4,43)            110.605          estimate D2E/DX2                !
 ! A20   A(4,5,6)              110.4077         estimate D2E/DX2                !
 ! A21   A(4,5,9)              110.0479         estimate D2E/DX2                !
 ! A22   A(4,5,44)             108.7738         estimate D2E/DX2                !
 ! A23   A(6,5,9)              109.8612         estimate D2E/DX2                !
 ! A24   A(6,5,44)             108.1537         estimate D2E/DX2                !
 ! A25   A(9,5,44)             109.5598         estimate D2E/DX2                !
 ! A26   A(1,6,5)              112.2024         estimate D2E/DX2                !
 ! A27   A(1,6,7)              108.3953         estimate D2E/DX2                !
 ! A28   A(1,6,45)             109.4969         estimate D2E/DX2                !
 ! A29   A(5,6,7)              113.288          estimate D2E/DX2                !
 ! A30   A(5,6,45)             106.5819         estimate D2E/DX2                !
 ! A31   A(7,6,45)             106.6772         estimate D2E/DX2                !
 ! A32   A(6,7,8)              113.4718         estimate D2E/DX2                !
 ! A33   A(6,7,46)             108.6437         estimate D2E/DX2                !
 ! A34   A(6,7,47)             109.2586         estimate D2E/DX2                !
 ! A35   A(8,7,46)             110.1101         estimate D2E/DX2                !
 ! A36   A(8,7,47)             107.1893         estimate D2E/DX2                !
 ! A37   A(46,7,47)            108.027          estimate D2E/DX2                !
 ! A38   A(7,8,48)             106.2992         estimate D2E/DX2                !
 ! A39   A(5,9,49)             106.5467         estimate D2E/DX2                !
 ! A40   A(4,10,50)            108.0213         estimate D2E/DX2                !
 ! A41   A(3,11,51)            110.2584         estimate D2E/DX2                !
 ! A42   A(2,12,13)            118.653          estimate D2E/DX2                !
 ! A43   A(12,13,14)           108.5825         estimate D2E/DX2                !
 ! A44   A(12,13,19)           109.8229         estimate D2E/DX2                !
 ! A45   A(12,13,52)           110.7142         estimate D2E/DX2                !
 ! A46   A(14,13,19)           107.5685         estimate D2E/DX2                !
 ! A47   A(14,13,52)           109.4575         estimate D2E/DX2                !
 ! A48   A(19,13,52)           110.6165         estimate D2E/DX2                !
 ! A49   A(13,14,15)           109.8491         estimate D2E/DX2                !
 ! A50   A(13,14,16)           109.8196         estimate D2E/DX2                !
 ! A51   A(13,14,53)           107.96           estimate D2E/DX2                !
 ! A52   A(15,14,16)           110.3708         estimate D2E/DX2                !
 ! A53   A(15,14,53)           109.8098         estimate D2E/DX2                !
 ! A54   A(16,14,53)           108.989          estimate D2E/DX2                !
 ! A55   A(14,15,54)           107.3746         estimate D2E/DX2                !
 ! A56   A(14,16,17)           111.5373         estimate D2E/DX2                !
 ! A57   A(14,16,40)           107.5575         estimate D2E/DX2                !
 ! A58   A(14,16,55)           106.3044         estimate D2E/DX2                !
 ! A59   A(17,16,40)           111.1471         estimate D2E/DX2                !
 ! A60   A(17,16,55)           109.388          estimate D2E/DX2                !
 ! A61   A(40,16,55)           110.7956         estimate D2E/DX2                !
 ! A62   A(16,17,18)           111.1838         estimate D2E/DX2                !
 ! A63   A(16,17,22)           113.8076         estimate D2E/DX2                !
 ! A64   A(16,17,56)           109.1776         estimate D2E/DX2                !
 ! A65   A(18,17,22)           107.9693         estimate D2E/DX2                !
 ! A66   A(18,17,56)           109.2413         estimate D2E/DX2                !
 ! A67   A(22,17,56)           105.2283         estimate D2E/DX2                !
 ! A68   A(17,18,19)           114.5109         estimate D2E/DX2                !
 ! A69   A(13,19,18)           108.7087         estimate D2E/DX2                !
 ! A70   A(13,19,20)           113.457          estimate D2E/DX2                !
 ! A71   A(13,19,57)           109.4233         estimate D2E/DX2                !
 ! A72   A(18,19,20)           107.5572         estimate D2E/DX2                !
 ! A73   A(18,19,57)           109.0884         estimate D2E/DX2                !
 ! A74   A(20,19,57)           108.5193         estimate D2E/DX2                !
 ! A75   A(19,20,21)           112.6309         estimate D2E/DX2                !
 ! A76   A(19,20,58)           108.221          estimate D2E/DX2                !
 ! A77   A(19,20,59)           109.5376         estimate D2E/DX2                !
 ! A78   A(21,20,58)           106.5821         estimate D2E/DX2                !
 ! A79   A(21,20,59)           111.8906         estimate D2E/DX2                !
 ! A80   A(58,20,59)           107.7568         estimate D2E/DX2                !
 ! A81   A(20,21,60)           108.8031         estimate D2E/DX2                !
 ! A82   A(17,22,23)           117.6456         estimate D2E/DX2                !
 ! A83   A(22,23,24)           110.3543         estimate D2E/DX2                !
 ! A84   A(22,23,28)           110.9927         estimate D2E/DX2                !
 ! A85   A(22,23,61)           111.0169         estimate D2E/DX2                !
 ! A86   A(24,23,28)           107.9893         estimate D2E/DX2                !
 ! A87   A(24,23,61)           109.2455         estimate D2E/DX2                !
 ! A88   A(28,23,61)           107.1335         estimate D2E/DX2                !
 ! A89   A(23,24,25)           109.3808         estimate D2E/DX2                !
 ! A90   A(23,24,39)           110.2642         estimate D2E/DX2                !
 ! A91   A(23,24,62)           108.517          estimate D2E/DX2                !
 ! A92   A(25,24,39)           109.3345         estimate D2E/DX2                !
 ! A93   A(25,24,62)           109.5509         estimate D2E/DX2                !
 ! A94   A(39,24,62)           109.7769         estimate D2E/DX2                !
 ! A95   A(24,25,26)           112.395          estimate D2E/DX2                !
 ! A96   A(24,25,38)           106.9315         estimate D2E/DX2                !
 ! A97   A(24,25,63)           107.6053         estimate D2E/DX2                !
 ! A98   A(26,25,38)           112.1012         estimate D2E/DX2                !
 ! A99   A(26,25,63)           106.8312         estimate D2E/DX2                !
 ! A100  A(38,25,63)           110.9307         estimate D2E/DX2                !
 ! A101  A(25,26,27)           110.9402         estimate D2E/DX2                !
 ! A102  A(25,26,31)           106.1732         estimate D2E/DX2                !
 ! A103  A(25,26,64)           110.6204         estimate D2E/DX2                !
 ! A104  A(27,26,31)           107.6547         estimate D2E/DX2                !
 ! A105  A(27,26,64)           109.5952         estimate D2E/DX2                !
 ! A106  A(31,26,64)           111.7858         estimate D2E/DX2                !
 ! A107  A(26,27,28)           114.8095         estimate D2E/DX2                !
 ! A108  A(23,28,27)           108.3886         estimate D2E/DX2                !
 ! A109  A(23,28,29)           113.5913         estimate D2E/DX2                !
 ! A110  A(23,28,65)           109.3582         estimate D2E/DX2                !
 ! A111  A(27,28,29)           106.8614         estimate D2E/DX2                !
 ! A112  A(27,28,65)           110.5967         estimate D2E/DX2                !
 ! A113  A(29,28,65)           108.0258         estimate D2E/DX2                !
 ! A114  A(28,29,30)           112.3902         estimate D2E/DX2                !
 ! A115  A(28,29,66)           108.7324         estimate D2E/DX2                !
 ! A116  A(28,29,67)           108.9646         estimate D2E/DX2                !
 ! A117  A(30,29,66)           107.6432         estimate D2E/DX2                !
 ! A118  A(30,29,67)           110.5796         estimate D2E/DX2                !
 ! A119  A(66,29,67)           108.4327         estimate D2E/DX2                !
 ! A120  A(29,30,68)           106.347          estimate D2E/DX2                !
 ! A121  A(26,31,32)           115.8216         estimate D2E/DX2                !
 ! A122  A(31,32,33)           109.8105         estimate D2E/DX2                !
 ! A123  A(31,32,69)           109.7713         estimate D2E/DX2                !
 ! A124  A(31,32,70)           108.5495         estimate D2E/DX2                !
 ! A125  A(33,32,69)           110.5301         estimate D2E/DX2                !
 ! A126  A(33,32,70)           110.0611         estimate D2E/DX2                !
 ! A127  A(69,32,70)           108.0755         estimate D2E/DX2                !
 ! A128  A(32,33,34)           117.8213         estimate D2E/DX2                !
 ! A129  A(32,33,71)           106.2234         estimate D2E/DX2                !
 ! A130  A(32,33,72)           108.808          estimate D2E/DX2                !
 ! A131  A(34,33,71)           107.2073         estimate D2E/DX2                !
 ! A132  A(34,33,72)           110.1784         estimate D2E/DX2                !
 ! A133  A(71,33,72)           105.8833         estimate D2E/DX2                !
 ! A134  A(33,34,35)           118.7407         estimate D2E/DX2                !
 ! A135  A(33,34,73)           108.6746         estimate D2E/DX2                !
 ! A136  A(33,34,74)           106.8695         estimate D2E/DX2                !
 ! A137  A(35,34,73)           111.2402         estimate D2E/DX2                !
 ! A138  A(35,34,74)           106.1381         estimate D2E/DX2                !
 ! A139  A(73,34,74)           104.0527         estimate D2E/DX2                !
 ! A140  A(34,35,36)           117.3109         estimate D2E/DX2                !
 ! A141  A(34,35,75)           108.2515         estimate D2E/DX2                !
 ! A142  A(34,35,76)           109.0461         estimate D2E/DX2                !
 ! A143  A(36,35,75)           108.5808         estimate D2E/DX2                !
 ! A144  A(36,35,76)           107.2217         estimate D2E/DX2                !
 ! A145  A(75,35,76)           105.8536         estimate D2E/DX2                !
 ! A146  A(35,36,37)           111.5974         estimate D2E/DX2                !
 ! A147  A(35,36,77)           111.114          estimate D2E/DX2                !
 ! A148  A(35,36,78)           110.7219         estimate D2E/DX2                !
 ! A149  A(37,36,77)           107.5364         estimate D2E/DX2                !
 ! A150  A(37,36,78)           106.327          estimate D2E/DX2                !
 ! A151  A(77,36,78)           109.3725         estimate D2E/DX2                !
 ! A152  A(36,37,79)           109.9862         estimate D2E/DX2                !
 ! A153  A(36,37,80)           109.2023         estimate D2E/DX2                !
 ! A154  A(36,37,81)           113.0349         estimate D2E/DX2                !
 ! A155  A(79,37,80)           108.9126         estimate D2E/DX2                !
 ! A156  A(79,37,81)           106.2404         estimate D2E/DX2                !
 ! A157  A(80,37,81)           109.3643         estimate D2E/DX2                !
 ! A158  A(25,38,82)           109.1253         estimate D2E/DX2                !
 ! A159  A(24,39,83)           107.4802         estimate D2E/DX2                !
 ! A160  A(16,40,84)           106.8474         estimate D2E/DX2                !
 ! D1    D(6,1,2,3)            -62.7698         estimate D2E/DX2                !
 ! D2    D(6,1,2,12)           178.0876         estimate D2E/DX2                !
 ! D3    D(6,1,2,41)            58.3322         estimate D2E/DX2                !
 ! D4    D(2,1,6,5)             59.7754         estimate D2E/DX2                !
 ! D5    D(2,1,6,7)           -174.3691         estimate D2E/DX2                !
 ! D6    D(2,1,6,45)           -58.356          estimate D2E/DX2                !
 ! D7    D(1,2,3,4)             58.6235         estimate D2E/DX2                !
 ! D8    D(1,2,3,11)           177.0767         estimate D2E/DX2                !
 ! D9    D(1,2,3,42)           -59.7833         estimate D2E/DX2                !
 ! D10   D(12,2,3,4)           175.8349         estimate D2E/DX2                !
 ! D11   D(12,2,3,11)          -65.7119         estimate D2E/DX2                !
 ! D12   D(12,2,3,42)           57.4281         estimate D2E/DX2                !
 ! D13   D(41,2,3,4)           -62.5438         estimate D2E/DX2                !
 ! D14   D(41,2,3,11)           55.9094         estimate D2E/DX2                !
 ! D15   D(41,2,3,42)          179.0494         estimate D2E/DX2                !
 ! D16   D(1,2,12,13)         -129.6882         estimate D2E/DX2                !
 ! D17   D(3,2,12,13)          110.7723         estimate D2E/DX2                !
 ! D18   D(41,2,12,13)         -10.3743         estimate D2E/DX2                !
 ! D19   D(2,3,4,5)            -52.5779         estimate D2E/DX2                !
 ! D20   D(2,3,4,10)          -171.8114         estimate D2E/DX2                !
 ! D21   D(2,3,4,43)            66.3447         estimate D2E/DX2                !
 ! D22   D(11,3,4,5)          -174.1351         estimate D2E/DX2                !
 ! D23   D(11,3,4,10)           66.6315         estimate D2E/DX2                !
 ! D24   D(11,3,4,43)          -55.2124         estimate D2E/DX2                !
 ! D25   D(42,3,4,5)            64.4171         estimate D2E/DX2                !
 ! D26   D(42,3,4,10)          -54.8164         estimate D2E/DX2                !
 ! D27   D(42,3,4,43)         -176.6603         estimate D2E/DX2                !
 ! D28   D(2,3,11,51)           59.9866         estimate D2E/DX2                !
 ! D29   D(4,3,11,51)          179.9838         estimate D2E/DX2                !
 ! D30   D(42,3,11,51)         -60.2991         estimate D2E/DX2                !
 ! D31   D(3,4,5,6)             49.3463         estimate D2E/DX2                !
 ! D32   D(3,4,5,9)            -72.0963         estimate D2E/DX2                !
 ! D33   D(3,4,5,44)           167.8737         estimate D2E/DX2                !
 ! D34   D(10,4,5,6)           171.5388         estimate D2E/DX2                !
 ! D35   D(10,4,5,9)            50.0963         estimate D2E/DX2                !
 ! D36   D(10,4,5,44)          -69.9338         estimate D2E/DX2                !
 ! D37   D(43,4,5,6)           -69.1765         estimate D2E/DX2                !
 ! D38   D(43,4,5,9)           169.381          estimate D2E/DX2                !
 ! D39   D(43,4,5,44)           49.3509         estimate D2E/DX2                !
 ! D40   D(3,4,10,50)          -48.5397         estimate D2E/DX2                !
 ! D41   D(5,4,10,50)         -170.3087         estimate D2E/DX2                !
 ! D42   D(43,4,10,50)          71.736          estimate D2E/DX2                !
 ! D43   D(4,5,6,1)            -52.1671         estimate D2E/DX2                !
 ! D44   D(4,5,6,7)           -175.3113         estimate D2E/DX2                !
 ! D45   D(4,5,6,45)            67.6781         estimate D2E/DX2                !
 ! D46   D(9,5,6,1)             69.3861         estimate D2E/DX2                !
 ! D47   D(9,5,6,7)            -53.7581         estimate D2E/DX2                !
 ! D48   D(9,5,6,45)          -170.7687         estimate D2E/DX2                !
 ! D49   D(44,5,6,1)          -171.0725         estimate D2E/DX2                !
 ! D50   D(44,5,6,7)            65.7833         estimate D2E/DX2                !
 ! D51   D(44,5,6,45)          -51.2273         estimate D2E/DX2                !
 ! D52   D(4,5,9,49)           -43.9549         estimate D2E/DX2                !
 ! D53   D(6,5,9,49)          -165.7231         estimate D2E/DX2                !
 ! D54   D(44,5,9,49)           75.598          estimate D2E/DX2                !
 ! D55   D(1,6,7,8)            -64.3999         estimate D2E/DX2                !
 ! D56   D(1,6,7,46)           172.7733         estimate D2E/DX2                !
 ! D57   D(1,6,7,47)            55.1381         estimate D2E/DX2                !
 ! D58   D(5,6,7,8)             60.8184         estimate D2E/DX2                !
 ! D59   D(5,6,7,46)           -62.0084         estimate D2E/DX2                !
 ! D60   D(5,6,7,47)          -179.6436         estimate D2E/DX2                !
 ! D61   D(45,6,7,8)           177.7731         estimate D2E/DX2                !
 ! D62   D(45,6,7,46)           54.9463         estimate D2E/DX2                !
 ! D63   D(45,6,7,47)          -62.6889         estimate D2E/DX2                !
 ! D64   D(6,7,8,48)           -45.4804         estimate D2E/DX2                !
 ! D65   D(46,7,8,48)           76.5343         estimate D2E/DX2                !
 ! D66   D(47,7,8,48)         -166.1926         estimate D2E/DX2                !
 ! D67   D(2,12,13,14)        -132.3553         estimate D2E/DX2                !
 ! D68   D(2,12,13,19)         110.2772         estimate D2E/DX2                !
 ! D69   D(2,12,13,52)         -12.1666         estimate D2E/DX2                !
 ! D70   D(12,13,14,15)         61.7113         estimate D2E/DX2                !
 ! D71   D(12,13,14,16)        -59.8551         estimate D2E/DX2                !
 ! D72   D(12,13,14,53)       -178.5678         estimate D2E/DX2                !
 ! D73   D(19,13,14,15)       -179.4913         estimate D2E/DX2                !
 ! D74   D(19,13,14,16)         58.9424         estimate D2E/DX2                !
 ! D75   D(19,13,14,53)        -59.7704         estimate D2E/DX2                !
 ! D76   D(52,13,14,15)        -59.2551         estimate D2E/DX2                !
 ! D77   D(52,13,14,16)        179.1785         estimate D2E/DX2                !
 ! D78   D(52,13,14,53)         60.4658         estimate D2E/DX2                !
 ! D79   D(12,13,19,18)         55.0313         estimate D2E/DX2                !
 ! D80   D(12,13,19,20)        -64.5807         estimate D2E/DX2                !
 ! D81   D(12,13,19,57)        174.0778         estimate D2E/DX2                !
 ! D82   D(14,13,19,18)        -62.967          estimate D2E/DX2                !
 ! D83   D(14,13,19,20)        177.421          estimate D2E/DX2                !
 ! D84   D(14,13,19,57)         56.0795         estimate D2E/DX2                !
 ! D85   D(52,13,19,18)        177.5329         estimate D2E/DX2                !
 ! D86   D(52,13,19,20)         57.9209         estimate D2E/DX2                !
 ! D87   D(52,13,19,57)        -63.4206         estimate D2E/DX2                !
 ! D88   D(13,14,15,54)       -169.6008         estimate D2E/DX2                !
 ! D89   D(16,14,15,54)        -48.3648         estimate D2E/DX2                !
 ! D90   D(53,14,15,54)         71.8127         estimate D2E/DX2                !
 ! D91   D(13,14,16,17)        -52.4449         estimate D2E/DX2                !
 ! D92   D(13,14,16,40)       -174.5628         estimate D2E/DX2                !
 ! D93   D(13,14,16,55)         66.7168         estimate D2E/DX2                !
 ! D94   D(15,14,16,17)       -173.6984         estimate D2E/DX2                !
 ! D95   D(15,14,16,40)         64.1836         estimate D2E/DX2                !
 ! D96   D(15,14,16,55)        -54.5368         estimate D2E/DX2                !
 ! D97   D(53,14,16,17)         65.6319         estimate D2E/DX2                !
 ! D98   D(53,14,16,40)        -56.4861         estimate D2E/DX2                !
 ! D99   D(53,14,16,55)       -175.2065         estimate D2E/DX2                !
 ! D100  D(14,16,17,18)         48.8227         estimate D2E/DX2                !
 ! D101  D(14,16,17,22)        171.006          estimate D2E/DX2                !
 ! D102  D(14,16,17,56)        -71.7735         estimate D2E/DX2                !
 ! D103  D(40,16,17,18)        168.848          estimate D2E/DX2                !
 ! D104  D(40,16,17,22)        -68.9688         estimate D2E/DX2                !
 ! D105  D(40,16,17,56)         48.2518         estimate D2E/DX2                !
 ! D106  D(55,16,17,18)        -68.49           estimate D2E/DX2                !
 ! D107  D(55,16,17,22)         53.6933         estimate D2E/DX2                !
 ! D108  D(55,16,17,56)        170.9138         estimate D2E/DX2                !
 ! D109  D(14,16,40,84)       -160.656          estimate D2E/DX2                !
 ! D110  D(17,16,40,84)         76.9843         estimate D2E/DX2                !
 ! D111  D(55,16,40,84)        -44.8618         estimate D2E/DX2                !
 ! D112  D(16,17,18,19)        -55.103          estimate D2E/DX2                !
 ! D113  D(22,17,18,19)        179.3893         estimate D2E/DX2                !
 ! D114  D(56,17,18,19)         65.4557         estimate D2E/DX2                !
 ! D115  D(16,17,22,23)        -54.5729         estimate D2E/DX2                !
 ! D116  D(18,17,22,23)         69.3668         estimate D2E/DX2                !
 ! D117  D(56,17,22,23)       -174.0598         estimate D2E/DX2                !
 ! D118  D(17,18,19,13)         62.7714         estimate D2E/DX2                !
 ! D119  D(17,18,19,20)       -174.0022         estimate D2E/DX2                !
 ! D120  D(17,18,19,57)        -56.4848         estimate D2E/DX2                !
 ! D121  D(13,19,20,21)       -176.2483         estimate D2E/DX2                !
 ! D122  D(13,19,20,58)        -58.6832         estimate D2E/DX2                !
 ! D123  D(13,19,20,59)         58.5432         estimate D2E/DX2                !
 ! D124  D(18,19,20,21)         63.4849         estimate D2E/DX2                !
 ! D125  D(18,19,20,58)       -178.95           estimate D2E/DX2                !
 ! D126  D(18,19,20,59)        -61.7236         estimate D2E/DX2                !
 ! D127  D(57,19,20,21)        -54.4015         estimate D2E/DX2                !
 ! D128  D(57,19,20,58)         63.1636         estimate D2E/DX2                !
 ! D129  D(57,19,20,59)       -179.6101         estimate D2E/DX2                !
 ! D130  D(19,20,21,60)        -64.2401         estimate D2E/DX2                !
 ! D131  D(58,20,21,60)        177.2307         estimate D2E/DX2                !
 ! D132  D(59,20,21,60)         59.6767         estimate D2E/DX2                !
 ! D133  D(17,22,23,24)        120.4477         estimate D2E/DX2                !
 ! D134  D(17,22,23,28)       -119.8705         estimate D2E/DX2                !
 ! D135  D(17,22,23,61)         -0.8281         estimate D2E/DX2                !
 ! D136  D(22,23,24,25)        178.8974         estimate D2E/DX2                !
 ! D137  D(22,23,24,39)        -60.8374         estimate D2E/DX2                !
 ! D138  D(22,23,24,62)         59.4296         estimate D2E/DX2                !
 ! D139  D(28,23,24,25)         57.4166         estimate D2E/DX2                !
 ! D140  D(28,23,24,39)        177.6818         estimate D2E/DX2                !
 ! D141  D(28,23,24,62)        -62.0512         estimate D2E/DX2                !
 ! D142  D(61,23,24,25)        -58.7794         estimate D2E/DX2                !
 ! D143  D(61,23,24,39)         61.4859         estimate D2E/DX2                !
 ! D144  D(61,23,24,62)       -178.2471         estimate D2E/DX2                !
 ! D145  D(22,23,28,27)        176.6843         estimate D2E/DX2                !
 ! D146  D(22,23,28,29)         58.0825         estimate D2E/DX2                !
 ! D147  D(22,23,28,65)        -62.6701         estimate D2E/DX2                !
 ! D148  D(24,23,28,27)        -62.2313         estimate D2E/DX2                !
 ! D149  D(24,23,28,29)        179.1669         estimate D2E/DX2                !
 ! D150  D(24,23,28,65)         58.4143         estimate D2E/DX2                !
 ! D151  D(61,23,28,27)         55.3338         estimate D2E/DX2                !
 ! D152  D(61,23,28,29)        -63.268          estimate D2E/DX2                !
 ! D153  D(61,23,28,65)        175.9794         estimate D2E/DX2                !
 ! D154  D(23,24,25,26)        -51.686          estimate D2E/DX2                !
 ! D155  D(23,24,25,38)       -175.109          estimate D2E/DX2                !
 ! D156  D(23,24,25,63)         65.6571         estimate D2E/DX2                !
 ! D157  D(39,24,25,26)       -172.5184         estimate D2E/DX2                !
 ! D158  D(39,24,25,38)         64.0586         estimate D2E/DX2                !
 ! D159  D(39,24,25,63)        -55.1752         estimate D2E/DX2                !
 ! D160  D(62,24,25,26)         67.1421         estimate D2E/DX2                !
 ! D161  D(62,24,25,38)        -56.2809         estimate D2E/DX2                !
 ! D162  D(62,24,25,63)       -175.5147         estimate D2E/DX2                !
 ! D163  D(23,24,39,83)       -172.985          estimate D2E/DX2                !
 ! D164  D(25,24,39,83)        -52.6919         estimate D2E/DX2                !
 ! D165  D(62,24,39,83)         67.5092         estimate D2E/DX2                !
 ! D166  D(24,25,26,27)         49.1967         estimate D2E/DX2                !
 ! D167  D(24,25,26,31)        165.8819         estimate D2E/DX2                !
 ! D168  D(24,25,26,64)        -72.6508         estimate D2E/DX2                !
 ! D169  D(38,25,26,27)        169.6807         estimate D2E/DX2                !
 ! D170  D(38,25,26,31)        -73.6341         estimate D2E/DX2                !
 ! D171  D(38,25,26,64)         47.8332         estimate D2E/DX2                !
 ! D172  D(63,25,26,27)        -68.6059         estimate D2E/DX2                !
 ! D173  D(63,25,26,31)         48.0794         estimate D2E/DX2                !
 ! D174  D(63,25,26,64)        169.5467         estimate D2E/DX2                !
 ! D175  D(24,25,38,82)       -171.9945         estimate D2E/DX2                !
 ! D176  D(26,25,38,82)         64.401          estimate D2E/DX2                !
 ! D177  D(63,25,38,82)        -54.9338         estimate D2E/DX2                !
 ! D178  D(25,26,27,28)        -56.0843         estimate D2E/DX2                !
 ! D179  D(31,26,27,28)       -171.855          estimate D2E/DX2                !
 ! D180  D(64,26,27,28)         66.3605         estimate D2E/DX2                !
 ! D181  D(25,26,31,32)        170.3755         estimate D2E/DX2                !
 ! D182  D(27,26,31,32)        -70.7549         estimate D2E/DX2                !
 ! D183  D(64,26,31,32)         49.6579         estimate D2E/DX2                !
 ! D184  D(26,27,28,23)         63.1512         estimate D2E/DX2                !
 ! D185  D(26,27,28,29)       -174.0665         estimate D2E/DX2                !
 ! D186  D(26,27,28,65)        -56.7227         estimate D2E/DX2                !
 ! D187  D(23,28,29,30)         56.6205         estimate D2E/DX2                !
 ! D188  D(23,28,29,66)        175.688          estimate D2E/DX2                !
 ! D189  D(23,28,29,67)        -66.3056         estimate D2E/DX2                !
 ! D190  D(27,28,29,30)        -62.8551         estimate D2E/DX2                !
 ! D191  D(27,28,29,66)         56.2124         estimate D2E/DX2                !
 ! D192  D(27,28,29,67)        174.2188         estimate D2E/DX2                !
 ! D193  D(65,28,29,30)        178.1197         estimate D2E/DX2                !
 ! D194  D(65,28,29,66)        -62.8128         estimate D2E/DX2                !
 ! D195  D(65,28,29,67)         55.1936         estimate D2E/DX2                !
 ! D196  D(28,29,30,68)        -79.2697         estimate D2E/DX2                !
 ! D197  D(66,29,30,68)        161.0273         estimate D2E/DX2                !
 ! D198  D(67,29,30,68)         42.744          estimate D2E/DX2                !
 ! D199  D(26,31,32,33)        158.5255         estimate D2E/DX2                !
 ! D200  D(26,31,32,69)         36.817          estimate D2E/DX2                !
 ! D201  D(26,31,32,70)        -81.1129         estimate D2E/DX2                !
 ! D202  D(31,32,33,34)        -80.0559         estimate D2E/DX2                !
 ! D203  D(31,32,33,71)        159.8172         estimate D2E/DX2                !
 ! D204  D(31,32,33,72)         46.2262         estimate D2E/DX2                !
 ! D205  D(69,32,33,34)         41.1978         estimate D2E/DX2                !
 ! D206  D(69,32,33,71)        -78.929          estimate D2E/DX2                !
 ! D207  D(69,32,33,72)        167.4799         estimate D2E/DX2                !
 ! D208  D(70,32,33,34)        160.5033         estimate D2E/DX2                !
 ! D209  D(70,32,33,71)         40.3764         estimate D2E/DX2                !
 ! D210  D(70,32,33,72)        -73.2146         estimate D2E/DX2                !
 ! D211  D(32,33,34,35)         81.7361         estimate D2E/DX2                !
 ! D212  D(32,33,34,73)        -46.6894         estimate D2E/DX2                !
 ! D213  D(32,33,34,74)       -158.4251         estimate D2E/DX2                !
 ! D214  D(71,33,34,35)       -158.6515         estimate D2E/DX2                !
 ! D215  D(71,33,34,73)         72.923          estimate D2E/DX2                !
 ! D216  D(71,33,34,74)        -38.8127         estimate D2E/DX2                !
 ! D217  D(72,33,34,35)        -43.877          estimate D2E/DX2                !
 ! D218  D(72,33,34,73)       -172.3025         estimate D2E/DX2                !
 ! D219  D(72,33,34,74)         75.9618         estimate D2E/DX2                !
 ! D220  D(33,34,35,36)        -78.8489         estimate D2E/DX2                !
 ! D221  D(33,34,35,75)        157.9276         estimate D2E/DX2                !
 ! D222  D(33,34,35,76)         43.2092         estimate D2E/DX2                !
 ! D223  D(73,34,35,36)         48.3764         estimate D2E/DX2                !
 ! D224  D(73,34,35,75)        -74.847          estimate D2E/DX2                !
 ! D225  D(73,34,35,76)        170.4346         estimate D2E/DX2                !
 ! D226  D(74,34,35,36)        160.9373         estimate D2E/DX2                !
 ! D227  D(74,34,35,75)         37.7138         estimate D2E/DX2                !
 ! D228  D(74,34,35,76)        -77.0046         estimate D2E/DX2                !
 ! D229  D(34,35,36,37)        -61.9229         estimate D2E/DX2                !
 ! D230  D(34,35,36,77)         58.0937         estimate D2E/DX2                !
 ! D231  D(34,35,36,78)        179.8465         estimate D2E/DX2                !
 ! D232  D(75,35,36,37)         61.1325         estimate D2E/DX2                !
 ! D233  D(75,35,36,77)       -178.8509         estimate D2E/DX2                !
 ! D234  D(75,35,36,78)        -57.098          estimate D2E/DX2                !
 ! D235  D(76,35,36,37)        175.0819         estimate D2E/DX2                !
 ! D236  D(76,35,36,77)        -64.9015         estimate D2E/DX2                !
 ! D237  D(76,35,36,78)         56.8514         estimate D2E/DX2                !
 ! D238  D(35,36,37,79)         43.0001         estimate D2E/DX2                !
 ! D239  D(35,36,37,80)        -76.4645         estimate D2E/DX2                !
 ! D240  D(35,36,37,81)        161.556          estimate D2E/DX2                !
 ! D241  D(77,36,37,79)        -79.1002         estimate D2E/DX2                !
 ! D242  D(77,36,37,80)        161.4352         estimate D2E/DX2                !
 ! D243  D(77,36,37,81)         39.4557         estimate D2E/DX2                !
 ! D244  D(78,36,37,79)        163.8311         estimate D2E/DX2                !
 ! D245  D(78,36,37,80)         44.3665         estimate D2E/DX2                !
 ! D246  D(78,36,37,81)        -77.613          estimate D2E/DX2                !
 --------------------------------------------------------------------------------
 Trust Radius=3.00D-01 FncErr=1.00D-07 GrdErr=1.00D-06
 Number of steps in this run=    504 maximum allowed number of steps=    504.
 GradGradGradGradGradGradGradGradGradGradGradGradGradGradGradGradGradGrad

 Leave Link  103 at Thu Mar 24 14:16:03 2016, MaxMem= 10737418240 cpu:         0.5
 (Enter /share/apps//g09/l202.exe)
 Stoichiometry    C23H44NO16(1+)
 Framework group  C1[X(C23H44NO16)]
 Deg. of freedom   246
 Full point group                 C1      NOp   1
 Largest Abelian subgroup         C1      NOp   1
 Largest concise Abelian subgroup C1      NOp   1
                         Standard orientation:                         
 ---------------------------------------------------------------------
 Center     Atomic      Atomic             Coordinates (Angstroms)
 Number     Number       Type             X           Y           Z
 ---------------------------------------------------------------------
      1          8           0        2.334996    1.227385    0.702575
      2          6           0        2.949885    0.227913   -0.073568
      3          6           0        3.190382    0.729667   -1.488216
      4          6           0        4.063851    1.966449   -1.445535
      5          6           0        3.493600    3.006799   -0.499136
      6          6           0        3.152541    2.373024    0.844222
      7          6           0        2.473044    3.329802    1.802690
      8          8           0        1.238969    3.832039    1.318951
      9          8           0        2.332070    3.593412   -1.064041
     10          8           0        4.165748    2.577622   -2.707210
     11          8           0        3.859664   -0.213951   -2.271282
     12          8           0        2.075567   -0.846924   -0.100077
     13          6           0        2.572113   -2.134684    0.220323
     14          6           0        2.093907   -3.111857   -0.832541
     15          8           0        2.601400   -2.742851   -2.092946
     16          6           0        0.578930   -3.136449   -0.860469
     17          6           0       -0.005083   -3.382489    0.533516
     18          8           0        0.587220   -2.520511    1.498741
     19          6           0        2.006606   -2.587481    1.557513
     20          6           0        2.456262   -1.732056    2.722663
     21          8           0        1.994287   -2.212808    3.953885
     22          8           0       -1.381185   -3.219199    0.601019
     23          6           0       -1.918164   -1.991528    0.154439
     24          6           0       -2.891476   -2.224767   -0.983856
     25          6           0       -3.473723   -0.898682   -1.426963
     26          6           0       -4.042197   -0.099199   -0.266331
     27          8           0       -3.117294   -0.027804    0.798291
     28          6           0       -2.670497   -1.279894    1.281302
     29          6           0       -1.817019   -1.001596    2.496605
     30          8           0       -0.665250   -0.242812    2.183741
     31          8           0       -4.234476    1.181278   -0.739737
     32          6           0       -4.960513    2.056557    0.116745
     33          6           0       -4.654725    3.494240   -0.241070
     34          6           0       -3.350292    4.098980    0.283537
     35          6           0       -2.050478    3.815875   -0.474319
     36          6           0       -1.392427    2.468548   -0.247957
     37          7           0       -0.989353    2.288113    1.171177
     38          8           0       -4.445190   -1.183114   -2.397810
     39          8           0       -2.232973   -2.832794   -2.072772
     40          8           0        0.190105   -4.137705   -1.753707
     41          1           0        3.908688   -0.065168    0.385332
     42          1           0        2.209764    0.991993   -1.907882
     43          1           0        5.055735    1.666962   -1.079693
     44          1           0        4.250674    3.781833   -0.328932
     45          1           0        4.109153    2.086765    1.308570
     46          1           0        3.157811    4.156197    2.016221
     47          1           0        2.265425    2.813004    2.739782
     48          1           0        1.392640    4.089127    0.395347
     49          1           0        2.536972    3.772610   -1.988453
     50          1           0        4.378690    1.896780   -3.351019
     51          1           0        3.339414   -1.030790   -2.330977
     52          1           0        3.665639   -2.132449    0.245503
     53          1           0        2.462371   -4.109480   -0.560699
     54          1           0        2.150292   -3.278663   -2.752341
     55          1           0        0.262332   -2.152320   -1.218341
     56          1           0        0.175451   -4.423827    0.820540
     57          1           0        2.309336   -3.624806    1.749369
     58          1           0        3.547051   -1.760679    2.766349
     59          1           0        2.155561   -0.691325    2.551174
     60          1           0        1.037439   -2.160667    3.966495
     61          1           0       -1.126526   -1.316166   -0.180978
     62          1           0       -3.697354   -2.878344   -0.625135
     63          1           0       -2.655151   -0.302172   -1.853604
     64          1           0       -4.983004   -0.548859    0.090864
     65          1           0       -3.522175   -1.898415    1.598162
     66          1           0       -2.405380   -0.428718    3.213964
     67          1           0       -1.537652   -1.950321    2.958722
     68          1           0       -0.021497   -0.866002    1.804215
     69          1           0       -4.697182    1.856337    1.159914
     70          1           0       -6.029711    1.857896   -0.007773
     71          1           0       -5.474585    4.091234    0.166103
     72          1           0       -4.712914    3.607288   -1.327443
     73          1           0       -3.251552    3.851674    1.349137
     74          1           0       -3.477314    5.183458    0.273704
     75          1           0       -1.330620    4.601715   -0.225627
     76          1           0       -2.235641    3.909316   -1.547175
     77          1           0       -2.065063    1.658149   -0.501810
     78          1           0       -0.480612    2.380376   -0.839141
     79          1           0       -1.727579    2.617841    1.786471
     80          1           0       -0.120959    2.842722    1.355616
     81          1           0       -0.822554    1.289719    1.424463
     82          1           0       -4.746504   -0.361664   -2.791011
     83          1           0       -2.853600   -2.860670   -2.806569
     84          1           0       -0.726270   -3.951416   -2.002201
 ---------------------------------------------------------------------
 Rotational constants (GHZ):      0.0994759      0.0822365      0.0609268
 Leave Link  202 at Thu Mar 24 14:16:03 2016, MaxMem= 10737418240 cpu:         0.9
 (Enter /share/apps//g09/l301.exe)
 Standard basis: 6-311+G(d,p) (5D, 7F)
 Ernie: Thresh=  0.10000D-02 Tol=  0.10000D-05 Strict=F.
 There are  1184 symmetry adapted cartesian basis functions of A   symmetry.
 There are  1144 symmetry adapted basis functions of A   symmetry.
  1144 basis functions,  1792 primitive gaussians,  1184 cartesian basis functions
   158 alpha electrons      158 beta electrons
       nuclear repulsion energy      5960.1814370478 Hartrees.
 IExCor= 1009 DFT=T Ex+Corr=PBE1PBE ExCW=0 ScaHFX=  0.250000
 ScaDFX=  0.750000  0.750000  1.000000  1.000000 ScalE2=  1.000000  1.000000
 IRadAn=      0 IRanWt=     -1 IRanGd=            0 ICorTp=0 IEmpDi=131
 NAtoms=   84 NActive=   84 NUniq=   84 SFac= 1.00D+00 NAtFMM=   60 NAOKFM=T Big=T
 Integral buffers will be    131072 words long.
 Raffenetti 2 integral format.
 Two-electron integral symmetry is turned on.
 R6Disp:  Grimme-D3 Dispersion energy=       -0.0845704476 Hartrees.
 Nuclear repulsion after empirical dispersion term =     5960.0968666002 Hartrees.
 Leave Link  301 at Thu Mar 24 14:16:04 2016, MaxMem= 10737418240 cpu:         2.2
 (Enter /share/apps//g09/l302.exe)
 NPDir=0 NMtPBC=     1 NCelOv=     1 NCel=       1 NClECP=     1 NCelD=      1
         NCelK=      1 NCelE2=     1 NClLst=     1 CellRange=     0.0.
 One-electron integrals computed using PRISM.
 NBasis=  1144 RedAO= T EigKep=  1.52D-06  NBF=  1144
 NBsUse=  1144 1.00D-06 EigRej= -1.00D+00 NBFU=  1144
 Precomputing XC quadrature grid using
 IXCGrd= 4 IRadAn=           0 IRanWt=          -1 IRanGd=           0 AccXCQ= 0.00D+00.
 Generated NRdTot=       0 NPtTot=           0 NUsed=           0 NTot=          32
 NSgBfM=  1078  1078  1084  1084  1084 MxSgAt=    84 MxSgA2=    84.
 Leave Link  302 at Thu Mar 24 14:16:07 2016, MaxMem= 10737418240 cpu:        50.9
 (Enter /share/apps//g09/l303.exe)
 DipDrv:  MaxL=1.
 Leave Link  303 at Thu Mar 24 14:16:07 2016, MaxMem= 10737418240 cpu:        10.1
 (Enter /share/apps//g09/l401.exe)
 ExpMin= 4.38D-02 ExpMax= 8.59D+03 ExpMxC= 1.30D+03 IAcc=2 IRadAn=         4 AccDes= 0.00D+00
 Harris functional with IExCor= 1009 and IRadAn=       4 diagonalized for initial guess.
 HarFok:  IExCor= 1009 AccDes= 0.00D+00 IRadAn=         4 IDoV= 1 UseB2=F ITyADJ=14
 ICtDFT=  3500011 ScaDFX=  1.000000  1.000000  1.000000  1.000000
 FoFCou: FMM=F IPFlag=           0 FMFlag=      100000 FMFlg1=        2001
         NFxFlg=           0 DoJE=T BraDBF=F KetDBF=T FulRan=T
         wScrn=  0.000000 ICntrl=     500 IOpCl=  0 I1Cent=   200000004 NGrid=           0
         NMat0=    1 NMatS0=      1 NMatT0=    0 NMatD0=    1 NMtDS0=    0 NMtDT0=    0
 Petite list used in FoFCou.
 Harris En= -2159.74338773726    
 JPrj=0 DoOrth=F DoCkMO=F.
 Leave Link  401 at Thu Mar 24 14:16:14 2016, MaxMem= 10737418240 cpu:       136.1
 (Enter /share/apps//g09/l502.exe)
 Closed shell SCF:
 Using DIIS extrapolation, IDIIS=  1040.
 Integral symmetry usage will be decided dynamically.
 IVT=     4256630 IEndB=     4256630 NGot= 10737418240 MDV= 10734581291
 LenX= 10734581291 LenY= 10733178251
 Requested convergence on RMS density matrix=1.00D-08 within 128 cycles.
 Requested convergence on MAX density matrix=1.00D-06.
 Requested convergence on             energy=1.00D-06.
 No special actions if energy rises.
 Fock matrices will be formed incrementally for  20 cycles.

 Cycle   1  Pass 1  IDiag  1:
 FoFJK:  IHMeth= 1 ICntrl=       0 DoSepK=F KAlg= 0 I1Cent=   0 FoldK=F
 IRaf= 800000000 NMat=   1 IRICut=       1 DoRegI=T DoRafI=F ISym2E= 0.
 FoFCou: FMM=T IPFlag=           0 FMFlag=      100000 FMFlg1=        2001
         NFxFlg=           0 DoJE=F BraDBF=F KetDBF=F FulRan=T
         wScrn=  0.000000 ICntrl=       0 IOpCl=  0 I1Cent=           0 NGrid=           0
         NMat0=    1 NMatS0=      1 NMatT0=    0 NMatD0=    1 NMtDS0=    0 NMtDT0=    0
 Symmetry not used in FoFCou.
 FMM levels:  10  Number of levels for PrismC:   9
 E= -2158.67749975489    
 DIIS: error= 1.29D-02 at cycle   1 NSaved=   1.
 NSaved= 1 IEnMin= 1 EnMin= -2158.67749975489     IErMin= 1 ErrMin= 1.29D-02
 ErrMax= 1.29D-02  0.00D+00 EMaxC= 1.00D-01 BMatC= 1.06D+00 BMatP= 1.06D+00
 IDIUse=3 WtCom= 8.71D-01 WtEn= 1.29D-01
 Coeff-Com:  0.100D+01
 Coeff-En:   0.100D+01
 Coeff:      0.100D+01
 Gap=     0.265 Goal=   None    Shift=    0.000
 GapD=    0.265 DampG=1.000 DampE=0.500 DampFc=0.5000 IDamp=-1.
 Damping current iteration by 5.00D-01
 RMSDP=9.99D-03 MaxDP=1.85D+00              OVMax= 1.52D-01

 Cycle   2  Pass 1  IDiag  1:
 RMSU=  4.98D-03    CP:  9.92D-01
 E= -2158.97947868899     Delta-E=       -0.301978934109 Rises=F Damp=T
 DIIS: error= 3.20D-03 at cycle   2 NSaved=   2.
 NSaved= 2 IEnMin= 2 EnMin= -2158.97947868899     IErMin= 2 ErrMin= 3.20D-03
 ErrMax= 3.20D-03  0.00D+00 EMaxC= 1.00D-01 BMatC= 8.00D-02 BMatP= 1.06D+00
 IDIUse=3 WtCom= 9.68D-01 WtEn= 3.20D-02
 Coeff-Com:  0.502D-01 0.950D+00
 Coeff-En:   0.139D+00 0.861D+00
 Coeff:      0.530D-01 0.947D+00
 Gap=     0.294 Goal=   None    Shift=    0.000
 RMSDP=4.19D-03 MaxDP=1.44D+00 DE=-3.02D-01 OVMax= 8.66D-02

 Cycle   3  Pass 1  IDiag  1:
 RMSU=  2.50D-03    CP:  9.04D-01  9.58D-01
 E= -2159.36245172324     Delta-E=       -0.382973034245 Rises=F Damp=F
 DIIS: error= 3.03D-03 at cycle   3 NSaved=   3.
 NSaved= 3 IEnMin= 3 EnMin= -2159.36245172324     IErMin= 3 ErrMin= 3.03D-03
 ErrMax= 3.03D-03  0.00D+00 EMaxC= 1.00D-01 BMatC= 4.36D-02 BMatP= 8.00D-02
 IDIUse=3 WtCom= 9.70D-01 WtEn= 3.03D-02
 Coeff-Com: -0.680D-01 0.407D+00 0.661D+00
 Coeff-En:   0.000D+00 0.000D+00 0.100D+01
 Coeff:     -0.659D-01 0.395D+00 0.671D+00
 Gap=     0.277 Goal=   None    Shift=    0.000
 RMSDP=1.69D-03 MaxDP=5.88D-01 DE=-3.83D-01 OVMax= 1.86D-02

 Cycle   4  Pass 1  IDiag  1:
 RMSU=  1.28D-03    CP:  9.26D-01  1.09D+00  9.21D-01
 E= -2159.38949973756     Delta-E=       -0.027048014317 Rises=F Damp=F
 DIIS: error= 9.89D-04 at cycle   4 NSaved=   4.
 NSaved= 4 IEnMin= 4 EnMin= -2159.38949973756     IErMin= 4 ErrMin= 9.89D-04
 ErrMax= 9.89D-04  0.00D+00 EMaxC= 1.00D-01 BMatC= 5.65D-03 BMatP= 4.36D-02
 IDIUse=3 WtCom= 9.90D-01 WtEn= 9.89D-03
 Coeff-Com: -0.359D-01 0.122D+00 0.338D+00 0.576D+00
 Coeff-En:   0.000D+00 0.000D+00 0.666D-01 0.933D+00
 Coeff:     -0.355D-01 0.121D+00 0.335D+00 0.579D+00
 Gap=     0.268 Goal=   None    Shift=    0.000
 RMSDP=1.29D-03 MaxDP=4.50D-01 DE=-2.70D-02 OVMax= 5.65D-03

 Cycle   5  Pass 1  IDiag  1:
 RMSU=  3.76D-04    CP:  8.98D-01  1.03D+00  9.25D-01  5.68D-01
 E= -2159.39426068982     Delta-E=       -0.004760952267 Rises=F Damp=F
 DIIS: error= 3.40D-04 at cycle   5 NSaved=   5.
 NSaved= 5 IEnMin= 5 EnMin= -2159.39426068982     IErMin= 5 ErrMin= 3.40D-04
 ErrMax= 3.40D-04  0.00D+00 EMaxC= 1.00D-01 BMatC= 2.59D-04 BMatP= 5.65D-03
 IDIUse=3 WtCom= 9.97D-01 WtEn= 3.40D-03
 Coeff-Com: -0.113D-01 0.260D-01 0.100D+00 0.252D+00 0.633D+00
 Coeff-En:   0.000D+00 0.000D+00 0.000D+00 0.000D+00 0.100D+01
 Coeff:     -0.113D-01 0.259D-01 0.100D+00 0.251D+00 0.635D+00
 Gap=     0.268 Goal=   None    Shift=    0.000
 RMSDP=1.98D-04 MaxDP=6.91D-02 DE=-4.76D-03 OVMax= 1.56D-03

 Cycle   6  Pass 1  IDiag  1:
 RMSU=  8.29D-05    CP:  9.01D-01  1.04D+00  9.35D-01  5.88D-01  7.10D-01
 E= -2159.39445262298     Delta-E=       -0.000191933155 Rises=F Damp=F
 DIIS: error= 7.56D-05 at cycle   6 NSaved=   6.
 NSaved= 6 IEnMin= 6 EnMin= -2159.39445262298     IErMin= 6 ErrMin= 7.56D-05
 ErrMax= 7.56D-05  0.00D+00 EMaxC= 1.00D-01 BMatC= 2.36D-05 BMatP= 2.59D-04
 IDIUse=1 WtCom= 1.00D+00 WtEn= 0.00D+00
 Coeff-Com: -0.405D-02 0.738D-02 0.351D-01 0.102D+00 0.327D+00 0.532D+00
 Coeff:     -0.405D-02 0.738D-02 0.351D-01 0.102D+00 0.327D+00 0.532D+00
 Gap=     0.268 Goal=   None    Shift=    0.000
 RMSDP=3.75D-05 MaxDP=1.07D-02 DE=-1.92D-04 OVMax= 4.68D-04

 Cycle   7  Pass 1  IDiag  1:
 RMSU=  1.61D-05    CP:  9.01D-01  1.04D+00  9.36D-01  6.00D-01  7.44D-01
                    CP:  6.94D-01
 E= -2159.39446933244     Delta-E=       -0.000016709464 Rises=F Damp=F
 DIIS: error= 2.47D-05 at cycle   7 NSaved=   7.
 NSaved= 7 IEnMin= 7 EnMin= -2159.39446933244     IErMin= 7 ErrMin= 2.47D-05
 ErrMax= 2.47D-05  0.00D+00 EMaxC= 1.00D-01 BMatC= 1.97D-06 BMatP= 2.36D-05
 IDIUse=1 WtCom= 1.00D+00 WtEn= 0.00D+00
 Coeff-Com: -0.104D-02 0.147D-02 0.930D-02 0.313D-01 0.115D+00 0.275D+00
 Coeff-Com:  0.568D+00
 Coeff:     -0.104D-02 0.147D-02 0.930D-02 0.313D-01 0.115D+00 0.275D+00
 Coeff:      0.568D+00
 Gap=     0.268 Goal=   None    Shift=    0.000
 RMSDP=7.98D-06 MaxDP=1.92D-03 DE=-1.67D-05 OVMax= 1.41D-04

 Cycle   8  Pass 1  IDiag  1:
 RMSU=  6.14D-06    CP:  9.01D-01  1.04D+00  9.36D-01  6.03D-01  7.47D-01
                    CP:  6.97D-01  8.30D-01
 E= -2159.39447058666     Delta-E=       -0.000001254221 Rises=F Damp=F
 DIIS: error= 5.53D-06 at cycle   8 NSaved=   8.
 NSaved= 8 IEnMin= 8 EnMin= -2159.39447058666     IErMin= 8 ErrMin= 5.53D-06
 ErrMax= 5.53D-06  0.00D+00 EMaxC= 1.00D-01 BMatC= 1.37D-07 BMatP= 1.97D-06
 IDIUse=1 WtCom= 1.00D+00 WtEn= 0.00D+00
 Coeff-Com: -0.142D-05-0.188D-03 0.213D-03 0.252D-02 0.128D-01 0.579D-01
 Coeff-Com:  0.251D+00 0.676D+00
 Coeff:     -0.142D-05-0.188D-03 0.213D-03 0.252D-02 0.128D-01 0.579D-01
 Coeff:      0.251D+00 0.676D+00
 Gap=     0.268 Goal=   None    Shift=    0.000
 RMSDP=4.36D-06 MaxDP=1.67D-03 DE=-1.25D-06 OVMax= 3.81D-05

 Cycle   9  Pass 1  IDiag  1:
 RMSU=  2.10D-06    CP:  9.01D-01  1.04D+00  9.36D-01  6.02D-01  7.51D-01
                    CP:  6.99D-01  8.79D-01  8.90D-01
 E= -2159.39447068748     Delta-E=       -0.000000100816 Rises=F Damp=F
 DIIS: error= 1.52D-06 at cycle   9 NSaved=   9.
 NSaved= 9 IEnMin= 9 EnMin= -2159.39447068748     IErMin= 9 ErrMin= 1.52D-06
 ErrMax= 1.52D-06  0.00D+00 EMaxC= 1.00D-01 BMatC= 1.01D-08 BMatP= 1.37D-07
 IDIUse=1 WtCom= 1.00D+00 WtEn= 0.00D+00
 Coeff-Com:  0.645D-04-0.169D-03-0.526D-03-0.937D-03-0.235D-02 0.530D-02
 Coeff-Com:  0.670D-01 0.293D+00 0.638D+00
 Coeff:      0.645D-04-0.169D-03-0.526D-03-0.937D-03-0.235D-02 0.530D-02
 Coeff:      0.670D-01 0.293D+00 0.638D+00
 Gap=     0.268 Goal=   None    Shift=    0.000
 RMSDP=1.03D-06 MaxDP=2.62D-04 DE=-1.01D-07 OVMax= 9.91D-06

 Cycle  10  Pass 1  IDiag  1:
 RMSU=  5.91D-07    CP:  9.01D-01  1.04D+00  9.36D-01  6.02D-01  7.50D-01
                    CP:  7.06D-01  8.77D-01  9.07D-01  8.10D-01
 E= -2159.39447069541     Delta-E=       -0.000000007926 Rises=F Damp=F
 DIIS: error= 4.63D-07 at cycle  10 NSaved=  10.
 NSaved=10 IEnMin=10 EnMin= -2159.39447069541     IErMin=10 ErrMin= 4.63D-07
 ErrMax= 4.63D-07  0.00D+00 EMaxC= 1.00D-01 BMatC= 1.21D-09 BMatP= 1.01D-08
 IDIUse=1 WtCom= 1.00D+00 WtEn= 0.00D+00
 Coeff-Com:  0.291D-04-0.672D-04-0.270D-03-0.599D-03-0.194D-02-0.111D-02
 Coeff-Com:  0.172D-01 0.100D+00 0.327D+00 0.559D+00
 Coeff:      0.291D-04-0.672D-04-0.270D-03-0.599D-03-0.194D-02-0.111D-02
 Coeff:      0.172D-01 0.100D+00 0.327D+00 0.559D+00
 Gap=     0.268 Goal=   None    Shift=    0.000
 RMSDP=3.30D-07 MaxDP=6.60D-05 DE=-7.93D-09 OVMax= 2.89D-06

 Cycle  11  Pass 1  IDiag  1:
 RMSU=  1.35D-07    CP:  9.01D-01  1.04D+00  9.36D-01  6.02D-01  7.50D-01
                    CP:  7.04D-01  8.83D-01  9.13D-01  8.03D-01  6.78D-01
 E= -2159.39447069640     Delta-E=       -0.000000000999 Rises=F Damp=F
 DIIS: error= 1.23D-07 at cycle  11 NSaved=  11.
 NSaved=11 IEnMin=11 EnMin= -2159.39447069640     IErMin=11 ErrMin= 1.23D-07
 ErrMax= 1.23D-07  0.00D+00 EMaxC= 1.00D-01 BMatC= 9.96D-11 BMatP= 1.21D-09
 IDIUse=1 WtCom= 1.00D+00 WtEn= 0.00D+00
 Coeff-Com:  0.802D-05-0.173D-04-0.889D-04-0.210D-03-0.730D-03-0.994D-03
 Coeff-Com:  0.255D-02 0.229D-01 0.106D+00 0.276D+00 0.595D+00
 Coeff:      0.802D-05-0.173D-04-0.889D-04-0.210D-03-0.730D-03-0.994D-03
 Coeff:      0.255D-02 0.229D-01 0.106D+00 0.276D+00 0.595D+00
 Gap=     0.268 Goal=   None    Shift=    0.000
 RMSDP=6.10D-08 MaxDP=2.17D-05 DE=-9.99D-10 OVMax= 7.77D-07

 Cycle  12  Pass 1  IDiag  1:
 RMSU=  3.53D-08    CP:  9.01D-01  1.04D+00  9.36D-01  6.02D-01  7.50D-01
                    CP:  7.04D-01  8.84D-01  9.14D-01  8.18D-01  6.97D-01
                    CP:  7.98D-01
 E= -2159.39447069635     Delta-E=        0.000000000050 Rises=F Damp=F
 DIIS: error= 3.06D-08 at cycle  12 NSaved=  12.
 NSaved=12 IEnMin=11 EnMin= -2159.39447069640     IErMin=12 ErrMin= 3.06D-08
 ErrMax= 3.06D-08  0.00D+00 EMaxC= 1.00D-01 BMatC= 7.16D-12 BMatP= 9.96D-11
 IDIUse=1 WtCom= 1.00D+00 WtEn= 0.00D+00
 Coeff-Com:  0.251D-06-0.236D-06-0.113D-04-0.297D-04-0.119D-03-0.316D-03
 Coeff-Com: -0.763D-03-0.908D-03 0.112D-01 0.631D-01 0.258D+00 0.670D+00
 Coeff:      0.251D-06-0.236D-06-0.113D-04-0.297D-04-0.119D-03-0.316D-03
 Coeff:     -0.763D-03-0.908D-03 0.112D-01 0.631D-01 0.258D+00 0.670D+00
 Gap=     0.268 Goal=   None    Shift=    0.000
 RMSDP=1.89D-08 MaxDP=4.39D-06 DE= 5.00D-11 OVMax= 2.39D-07

 Cycle  13  Pass 1  IDiag  1:
 RMSU=  1.39D-08    CP:  9.01D-01  1.04D+00  9.36D-01  6.02D-01  7.50D-01
                    CP:  7.04D-01  8.83D-01  9.15D-01  8.19D-01  7.10D-01
                    CP:  7.92D-01  8.95D-01
 E= -2159.39447069633     Delta-E=        0.000000000028 Rises=F Damp=F
 DIIS: error= 9.31D-09 at cycle  13 NSaved=  13.
 NSaved=13 IEnMin=11 EnMin= -2159.39447069640     IErMin=13 ErrMin= 9.31D-09
 ErrMax= 9.31D-09  0.00D+00 EMaxC= 1.00D-01 BMatC= 5.14D-13 BMatP= 7.16D-12
 IDIUse=1 WtCom= 1.00D+00 WtEn= 0.00D+00
 Coeff-Com: -0.351D-06 0.875D-06 0.280D-06-0.266D-06-0.676D-05-0.690D-04
 Coeff-Com: -0.470D-03-0.177D-02-0.189D-02 0.970D-02 0.716D-01 0.293D+00
 Coeff-Com:  0.630D+00
 Coeff:     -0.351D-06 0.875D-06 0.280D-06-0.266D-06-0.676D-05-0.690D-04
 Coeff:     -0.470D-03-0.177D-02-0.189D-02 0.970D-02 0.716D-01 0.293D+00
 Coeff:      0.630D+00
 Gap=     0.268 Goal=   None    Shift=    0.000
 RMSDP=5.50D-09 MaxDP=8.32D-07 DE= 2.82D-11 OVMax= 6.91D-08

 SCF Done:  E(RPBE1PBE) =  -2159.39447070     A.U. after   13 cycles
            NFock= 13  Conv=0.55D-08     -V/T= 2.0033
[...]
 0017921,0.00008970,0.00002798,0.00000405,0.00002008,0.00002045,0.00003
 623,-0.00000100,-0.00000135,-0.00002271,0.00000318,0.00002286,0.000077
 91,0.00001135,-0.00006632,-0.00008049,0.00001398,0.00087452,-0.0010747
 1,-0.00151872,-0.09512511,-0.16607758,0.02286739,-0.00211472,-0.000059
 44,0.00026524,0.00000074,0.00000481,-0.00000077,0.00000162,-0.00000894
 ,-0.00000319,0.00000160,0.00000196,-0.00000021,-0.00000634,-0.00000256
 ,0.00000314,-0.00000400,0.00000134,0.00000400,-0.00000887,-0.00000622,
 -0.00000170,-0.00000316,-0.00000243,0.00000258,0.00002871,0.00000354,0
 .00000969,0.00002299,-0.00000919,-0.00000036,0.00000153,-0.00001814,-0
 .00000957,0.00000244,-0.00006670,-0.00002007,-0.00000372,-0.00001097,-
 0.00000388,-0.00005499,-0.00003378,-0.00006076,-0.00003413,-0.00015829
 ,0.00006129,0.00006648,0.00011075,0.00031176,0.00002599,-0.00002689,0.
 00002474,0.00000331,0.00000059,0.00000035,-0.00000380,-0.00000460,-0.0
 0000462,0.00000243,0.00000297,-0.00000023,0.00000481,-0.00000238,-0.00
 000101,0.00001768,-0.00016211,0.00016789,-0.00041258,0.00046445,-0.000
 89375,-0.00013753,-0.00047562,-0.00014347,-0.00007803,0.00001186,-0.00
 005835,0.00003627,-0.00002160,0.00002298,0.00002160,0.00025285,-0.0000
 0517,-0.00001080,-0.00004853,-0.00000512,-0.00000365,-0.00002209,0.000
 00036,0.00005192,-0.00005442,-0.00000413,0.00001021,-0.00000031,-0.000
 00498,0.00000692,-0.00001623,-0.00002350,-0.00001501,-0.00000451,0.000
 02064,-0.00000755,-0.00001155,0.00001024,-0.00000819,-0.00001193,-0.00
 001490,-0.00000289,-0.00001790,-0.00001778,0.00000382,0.00000625,0.000
 02078,0.00003287,0.00005315,0.00002447,-0.00000102,-0.00001275,-0.0000
 0370,0.00002255,0.00003196,-0.00000038,0.00005059,0.00004551,0.0000505
 9,0.00007090,0.00004163,-0.00010660,0.00064109,-0.00142469,0.00016557,
 0.09191911,-0.00001088,0.00006423,0.00009725,-0.00001123,-0.00008166,-
 0.00017904,-0.00004208,-0.00000109,0.00001563,-0.00002039,0.00001161,-
 0.00005684,0.00000043,-0.00000330,-0.00000431,-0.00000371,-0.00003645,
 -0.00007411,-0.00002068,-0.00002105,0.00000597,0.00003044,0.00005007,0
 .00004933,0.00000643,0.00000663,0.00003855,0.00003127,-0.00003570,0.00
 007385,0.00003851,-0.00001311,0.00006071,0.00003917,0.00009160,0.00016
 794,0.00004959,-0.00004241,-0.00002723,-0.00015791,0.00002846,-0.00015
 205,0.00018548,-0.00002545,0.00013633,0.00003466,-0.00011087,0.0000309
 3,-0.00042081,-0.00046437,-0.00009577,0.00015959,0.00034767,0.00010975
 ,-0.00016906,-0.00007479,-0.00002429,0.00003875,-0.00004008,0.00002124
 ,-0.00001632,0.00006292,-0.00001832,0.00032529,0.00110153,-0.00034865,
 0.00443020,-0.00115741,0.00091214,-0.00456145,-0.02519635,0.00211352,-
 0.00066226,0.00188681,-0.00070903,0.00004763,-0.00150742,0.00013029,0.
 00005181,0.00014573,-0.00001725,-0.00078342,-0.00093687,0.00009216,0.0
 0039642,-0.00008089,0.00004321,-0.00006306,0.00015578,0.00002162,-0.00
 083039,0.00041216,0.00048532,0.00031858,-0.00006905,0.00006564,-0.0000
 8373,0.00002948,-0.00002496,-0.00000928,-0.00001749,0.00001805,0.00001
 124,0.00003515,-0.00001389,-0.00001366,-0.00003891,-0.00003528,0.00000
 529,0.00004914,0.00007473,-0.00027480,-0.00094890,0.00005025,-0.118540
 00,-0.46173217,0.06223776,0.00124240,0.00056939,-0.00000919,0.00001099
 ,0.00001389,0.00000636,0.00001058,0.00000901,-0.00001619,0.00000097,0.
 00000327,0.00000689,-0.00000030,0.00000394,0.00000857,0.00000785,0.000
 00330,0.00000249,0.00000340,0.00000611,0.00000637,0.00000329,-0.000007
 59,-0.00000290,-0.00000664,-0.00000607,-0.00002654,-0.00000019,0.00000
 520,-0.00002613,-0.00001651,0.00001803,-0.00002806,-0.00002522,-0.0000
 0230,-0.00008168,0.00000285,0.00002662,0.00002392,0.00004555,0.0000208
 2,0.00000884,-0.00012671,0.00005818,-0.00004452,-0.00008661,-0.0001547
 4,-0.00010113,0.00003024,0.00003844,-0.00001377,0.00001910,0.00000063,
 -0.00000040,0.00000148,0.00001250,0.00000172,-0.00000497,-0.00000202,-
 0.00000776,0.00001115,-0.00004238,0.00000556,0.00003967,0.00034344,0.0
 0001418,-0.00125947,0.00109173,0.00007274,0.00016398,-0.00025701,-0.00
 040858,-0.00011897,0.00011579,0.00000323,0.00003857,-0.00003560,0.0000
 5387,-0.00005762,-0.00008331,0.00001711,0.00001276,-0.00000342,0.00000
 622,0.00002212,-0.00007719,-0.00003039,-0.00002409,0.00001692,-0.00000
 598,-0.00004273,0.00000595,-0.00001186,-0.00001530,0.00001732,0.000034
 66,0.00002261,-0.00000182,0.00000268,0.00000916,-0.00000966,-0.0000064
 6,-0.00000384,0.00000810,0.00001388,-0.00000747,0.00001042,0.00001614,
 -0.00000205,-0.00000619,-0.00000896,0.00000985,-0.00002138,-0.00002785
 ,-0.00000429,-0.00000447,-0.00001326,0.00001463,-0.00002098,-0.0000211
 3,-0.00004041,-0.00005691,-0.00006455,0.00001986,-0.00004522,-0.000066
 00,-0.00004255,0.00014272,-0.00007836,0.12312080,0.48693984,0.00002320
 ,-0.00000720,-0.00007162,-0.00000388,0.00001239,0.00015294,-0.00006612
 ,-0.00006188,0.00000885,-0.00000518,-0.00002998,0.00002640,-0.00003882
 ,-0.00002951,0.00000781,0.00001033,0.00000718,0.00004025,-0.00004512,-
 0.00003740,0.00001368,0.00005260,0.00006473,0.00000340,0.00003819,0.00
 007096,-0.00000569,0.00002249,0.00005552,-0.00002220,0.00005094,0.0000
 5898,-0.00006714,0.00003544,-0.00003291,-0.00021309,-0.00010258,0.0000
 4247,0.00013055,0.00011691,-0.00016944,0.00027218,-0.00002635,0.000108
 27,-0.00018806,-0.00041259,-0.00020981,-0.00021183,-0.00010964,0.00007
 313,-0.00003882,-0.00000909,-0.00019521,-0.00008180,0.00006372,0.00005
 445,0.00001812,-0.00001163,0.00001606,0.00003218,0.00000231,-0.0000178
 6,-0.00003326,-0.00030459,0.00026435,0.00004668,0.00076555,-0.00057454
 ,-0.00087942,0.00010345,0.00392043,-0.00042128,0.00075112,-0.00357432,
 0.00139117,0.00010718,-0.00073068,0.00022388,0.00016330,0.00081310,-0.
 00040635,-0.00044757,-0.00013036,0.00096520,0.00012665,0.00006317,0.00
 003438,0.00004838,-0.00004534,-0.00015438,-0.00030672,0.00038285,-0.00
 004923,0.00022662,-0.00013075,-0.00003760,-0.00003310,-0.00001000,0.00
 000726,0.00000461,-0.00002279,0.00000026,0.00000787,0.00001037,0.00000
 833,-0.00001140,-0.00010969,0.00000919,0.00004418,0.00010467,-0.000063
 59,-0.00187300,0.00163968,-0.00092964,0.01653615,0.06140819,-0.0139307
 8,0.00082620,-0.00019802,-0.00037056,0.00001668,0.00001554,-0.00001875
 ,0.00002495,0.00000390,-0.00000777,0.00001467,0.00001387,0.00000401,0.
 00000674,0.00000654,0.00000050,0.00000444,0.00000169,-0.00000307,0.000
 00846,0.00000014,-0.00000169,-0.00000194,0.00000160,-0.00000068,-0.000
 00808,-0.00002718,-0.00000327,-0.00000958,-0.00003513,-0.00001292,-0.0
 0002636,-0.00002306,-0.00000429,-0.00003290,-0.00004059,0.00009441,0.0
 0000416,-0.00001704,-0.00002775,-0.00004169,-0.00000869,-0.00004246,-0
 .00003101,-0.00005109,0.00010132,0.00009470,0.00006477,0.00021334,0.00
 004684,0.00001574,0.00000981,-0.00000249,0.00000732,-0.00001681,-0.000
 00915,-0.00001065,-0.00000484,0.00001196,-0.00000338,-0.00000299,-0.00
 000185,0.00001348,0.00001557,-0.00002941,0.00009206,0.00004673,0.00013
 185,0.00091980,-0.00001739,0.00026612,-0.00028950,-0.00062873,-0.00021
 132,0.00012650,-0.00000510,0.00002821,-0.00000788,-0.00007573,-0.00001
 296,-0.00005857,-0.00000451,0.00000852,0.00003859,-0.00000909,-0.00006
 256,0.00004352,0.00004626,-0.00003355,0.00005307,-0.00000492,-0.000029
 08,-0.00000540,0.00000380,-0.00001195,0.00001399,0.00001454,0.00001889
 ,0.00000714,-0.00002076,-0.00000007,0.00001482,-0.00001565,-0.00000110
 ,0.00000584,0.00001103,-0.00000276,0.00001235,0.00001174,0.00001075,0.
 00000705,-0.00002964,0.00000843,-0.00005989,0.00000337,-0.00001072,-0.
 00001982,-0.00000922,-0.00000350,-0.00001930,0.00000931,-0.00003810,-0
 .00004287,-0.00003683,-0.00008148,-0.00003553,0.00015849,0.00031547,0.
 00001645,-0.00038751,-0.01642003,-0.06497838,0.01506960,-0.00037431,0.
 00027492,0.00032497,0.00026951,-0.00042290,-0.00076827,0.00027910,-0.0
 0003845,-0.00005430,-0.00002077,-0.00001644,-0.00010397,0.00016079,0.0
 0007776,-0.00003061,-0.00003825,-0.00009964,-0.00016523,0.00020542,0.0
 0008681,-0.00003195,-0.00026407,-0.00014414,-0.00006489,-0.00021490,-0
 .00005776,0.00005715,-0.00004123,-0.00001887,0.00014803,-0.00023217,0.
 00020139,0.00042574,-0.00028827,0.00046337,0.00089103,0.00135668,0.000
 00499,-0.00013146,-0.00151621,0.00249477,0.00088896,0.00053993,0.00013
 103,0.00058560,0.01149690,0.00736142,-0.00173704,0.00488459,0.00255873
 ,0.00232750,-0.00207070,0.00154921,-0.00037239,0.00001146,-0.00033769,
 0.00021061,0.00009926,-0.00028695,-0.00003221,-0.00023682,0.00029023,-
 0.00011519,-0.00270873,-0.00238523,0.00032616,0.00068334,0.00158849,0.
 00006241,-0.00561834,0.00658684,-0.00196569,0.00142523,-0.00128788,0.0
 0085386,-0.00037527,0.00150519,-0.00004048,-0.00010598,-0.00061358,-0.
 00001429,-0.00054876,-0.00038915,-0.00005549,0.00066556,0.00035076,0.0
 0024258,-0.00075981,-0.00038023,-0.00018103,0.00095781,-0.00067147,-0.
 00066260,-0.00049772,0.00021360,0.00001918,0.00009064,-0.00000135,0.00
 004699,0.00003074,0.00004711,-0.00000485,-0.00002296,-0.00003259,0.000
 00346,0.00006829,0.00012881,0.00004738,-0.00010486,-0.00017544,-0.0001
 1227,0.00071312,-0.00003456,-0.00040255,0.00204639,-0.00190125,-0.0005
 6042,-0.33849866,-0.23226996,0.00583064,-0.00001845,0.00000780,0.00004
 154,-0.00003392,-0.00002197,-0.00000298,-0.00001481,-0.00000816,-0.000
 00287,-0.00002813,-0.00000591,0.00002431,-0.00000537,-0.00000223,0.000
 01251,-0.00004029,-0.00000816,0.00000385,0.00000098,-0.00000796,0.0000
 0169,0.00008759,-0.00000183,0.00001914,0.00006802,0.00000490,-0.000021
 28,0.00000954,0.00000570,-0.00007362,0.00005504,-0.00016240,-0.0005586
 3,-0.00007926,0.00039282,0.00023595,-0.00003729,-0.00002048,-0.0002208
 7,-0.00086101,-0.00036221,-0.00016715,-0.00036229,0.00200362,0.0022321
 5,-0.00011851,-0.00022886,0.00010730,-0.00003493,-0.00004908,0.0000450
 9,-0.00002190,-0.00002777,-0.00000315,0.00000026,0.00003597,0.00002375
 ,0.00014753,-0.00005701,-0.00000722,0.00018190,-0.00008403,-0.00009919
 ,0.00085974,-0.00053915,0.00025548,-0.00012477,0.00001311,0.00002162,0
 .00004722,-0.00009659,-0.00005147,-0.00008222,0.00005796,-0.00004630,-
 0.00005243,-0.00014481,-0.00004135,0.00000955,-0.00002749,0.00001050,0
 .00075913,0.00003927,-0.00026026,0.00004558,-0.00004333,0.00001490,0.0
 0004874,-0.00001512,-0.00000233,0.00001449,-0.00002929,-0.00005481,-0.
 00002803,-0.00000606,0.00000728,-0.00001323,-0.00000597,0.00001914,-0.
 00000964,-0.00001701,-0.00002904,0.00000885,-0.00003333,-0.00004216,0.
 00000444,0.00001131,0.00003117,0.00002632,0.00006214,0.00007623,0.0000
 1138,0.00000625,-0.00000453,0.00002032,0.00006143,0.00004292,0.0001856
 9,0.00016810,0.00018217,0.00010022,0.00010591,0.00005369,-0.00007768,-
 0.00019312,0.00012599,0.00228812,-0.00248357,-0.00022816,0.32561752,-0
 .00013932,0.00016849,0.00024589,0.00009715,-0.00024374,-0.00054567,0.0
 0011977,0.00001282,-0.00000116,-0.00002651,0.00002153,-0.00010884,0.00
 007460,0.00003562,-0.00001650,-0.00002597,-0.00008506,-0.00015485,0.00
 008147,0.00003016,-0.00001849,-0.00009759,-0.00003782,0.00002374,-0.00
 008560,-0.00004466,0.00005713,0.00000468,-0.00006110,0.00013463,-0.000
 08873,0.00005567,0.00031017,-0.00000661,0.00042777,0.00069796,-0.00114
 602,-0.00021585,-0.00048291,0.00275540,-0.00447629,-0.00188867,0.00040
 448,0.00102034,0.00119927,-0.02862142,-0.03060154,-0.00432992,0.000007
 06,-0.00364249,0.00015202,-0.00017387,0.00177577,0.00030905,-0.0005246
 1,-0.00020394,-0.00012403,0.00015392,-0.00014071,0.00003070,-0.0000820
 9,0.00018644,-0.00001238,-0.00185207,0.00107048,0.00078086,0.00219041,
 0.00045041,-0.00145541,-0.00122278,0.00374265,-0.00183512,0.00099396,-
 0.00069178,0.00028937,0.00007617,0.00100499,-0.00024421,-0.00050710,-0
 .00046791,0.00030156,0.00008428,-0.00027952,-0.00016392,0.00021418,0.0
 0007043,0.00004609,-0.00042523,-0.00003271,0.00010053,0.00026448,-0.00
 033616,-0.00011284,-0.00011589,0.00008512,-0.00002182,0.00003528,-0.00
 000007,0.00000988,0.00000740,0.00002241,0.00000706,0.00000141,-0.00000
 793,-0.00001133,0.00001685,0.00008585,-0.00001676,-0.00007120,-0.00008
 233,0.00008666,0.00008082,-0.00035666,0.00003101,0.00279211,-0.0085869
 0,0.00069836,-0.19018954,-0.18719693,-0.01313957,0.00001144,0.00002757
 ,0.00004700,-0.00001859,0.00000091,-0.00001195,-0.00001122,-0.00000750
 ,0.00000166,-0.00001469,0.00000056,0.00001833,0.00000389,0.00000467,0.
 00000908,-0.00001571,0.00000257,0.00001086,0.00000385,-0.00001233,-0.0
 0000355,0.00003329,0.00000516,-0.00001562,0.00002539,0.00001891,-0.000
 02549,-0.00000456,0.00002772,-0.00005326,0.00002666,-0.00005722,-0.000
 45424,0.00013272,-0.00021587,-0.00000182,0.00021925,0.00007113,0.00014
 670,-0.00069060,0.00013133,-0.00143043,-0.00049248,0.00244614,0.000503
 07,-0.00010076,-0.00014823,0.00005402,0.00004233,-0.00002471,0.0000422
 2,-0.00000574,0.00005920,0.00000553,-0.00001421,0.00001887,-0.00000132
 ,0.00007635,-0.00012151,-0.00001077,0.00006579,-0.00018095,0.00001231,
 0.00045954,-0.00022952,0.00013722,-0.00007908,-0.00000132,0.00000838,0
 .00000944,-0.00006710,-0.00001539,-0.00008627,0.00006828,-0.00001698,-
 0.00004542,-0.00002122,0.00002117,0.00003716,-0.00008471,0.00004463,0.
 00044616,-0.00012833,-0.00024387,0.00002552,-0.00002674,0.00000505,0.0
 0000648,-0.00000781,-0.00000213,-0.00000028,-0.00000799,-0.00001805,-0
 .00000526,-0.00000466,0.00000911,0.00000168,-0.00001404,0.00000892,-0.
 00000942,-0.00000703,-0.00000576,-0.00000231,-0.00000778,-0.00001123,-
 0.00000534,-0.00000343,0.00001705,0.00002330,0.00003769,0.00001197,0.0
 0000266,0.00000217,-0.00001042,0.00002727,0.00001866,-0.00000837,0.000
 05020,0.00003002,0.00002147,0.00012320,0.00003935,-0.00018139,-0.00008
 494,-0.00003139,0.00002086,-0.00257712,-0.00048652,0.00138492,0.217356
 70,0.22641216,0.00004327,0.00002567,-0.00006533,-0.00001549,-0.0000080
 8,0.00008726,-0.00004707,-0.00009471,0.00001105,-0.00000289,-0.0000168
 5,0.00000388,-0.00002197,-0.00002573,0.00000624,0.00000533,-0.00000506
 ,0.00003051,-0.00003899,-0.00003283,0.00001015,0.00004581,0.00005689,0
 .00000911,0.00002020,0.00005776,0.00000449,0.00001677,0.00004663,-0.00
 000736,0.00004399,0.00011875,-0.00004712,0.00019787,0.00035220,-0.0001
 1013,-0.00190950,-0.00066817,0.00003058,0.00170147,-0.00506974,-0.0025
 3732,0.00040645,-0.00026523,-0.00013913,-0.01712096,-0.01626965,-0.002
 42544,0.00079499,0.00189177,0.00113523,-0.00004696,-0.00032556,-0.0003
 4871,-0.00005089,0.00015418,-0.00009221,-0.00006875,0.00003391,0.00004
 690,0.00004502,-0.00004896,-0.00003437,0.00121175,-0.00081750,-0.00077
 932,-0.00101693,-0.00042157,0.00147438,0.00078847,-0.00280168,0.000610
 26,-0.00032963,0.00035699,-0.00017089,0.00014914,-0.00050354,0.0001033
 3,0.00017764,0.00022751,-0.00017783,0.00009106,0.00007019,-0.00011906,
 -0.00014085,-0.00008168,0.00004640,0.00016381,0.00011397,-0.00008550,-
 0.00029677,0.00020854,0.00013117,0.00017206,-0.00008485,-0.00000253,-0
 .00003267,0.00000648,-0.00000414,0.00000092,-0.00001483,0.00000857,0.0
 0000472,0.00001809,-0.00000334,-0.00000043,-0.00006584,0.00000774,0.00
 001850,0.00006695,-0.00001661,-0.00031929,0.00005231,0.00000373,-0.001
 16420,0.00208681,-0.00357894,0.02619909,0.00236592,-0.01805011,0.00005
 118,0.00005788,0.00001561,0.00003845,0.00001114,-0.00003413,0.00001478
 ,0.00001388,0.00001006,0.00000266,0.00000679,0.00000297,0.00000556,0.0
 0000383,0.00000171,0.00000727,0.00000055,-0.00000044,-0.00000387,0.000
 00039,-0.00000084,-0.00000253,-0.00002068,-0.00000555,-0.00000032,-0.0
 0002497,-0.00001589,-0.00002165,-0.00002184,-0.00001492,-0.00006437,-0
 .00012028,0.00007448,0.00016875,-0.00047548,-0.00023711,0.00014502,0.0
 0004580,0.00014907,-0.00008368,-0.00007529,0.00073453,-0.00104435,-0.0
 0025593,0.00048214,0.00012555,0.00029241,-0.00015741,0.00000322,0.0000
 0169,0.00001041,0.00000800,-0.00000749,-0.00000032,0.00001570,-0.00001
 350,-0.00001151,-0.00002526,0.00001942,0.00003151,0.00018888,-0.000179
 60,-0.00029080,-0.00089393,0.00035455,-0.00012232,0.00008189,-0.000029
 54,-0.00010947,-0.00004483,0.00003329,0.00000812,-0.00007725,0.0000048
 7,-0.00000833,0.00001128,0.00004273,-0.00000169,-0.00000068,0.00004827
 ,-0.00002823,-0.00018949,-0.00003848,0.00013369,-0.00001476,0.00002265
 ,-0.00000400,-0.00002202,0.00000081,-0.00000060,-0.00000800,0.00000923
 ,0.00001274,0.00001152,0.00000253,-0.00000786,0.00000200,0.00000394,-0
 .00000991,-0.00000356,0.00000396,0.00000870,-0.00000412,0.00000656,0.0
 0001115,0.00000579,0.00000292,-0.00001537,0.00001365,-0.00001921,-0.00
 000313,-0.00000742,-0.00001720,-0.00001666,0.00000507,-0.00001475,-0.0
 0000241,-0.00003521,-0.00004615,-0.00003950,-0.00003371,-0.00004941,0.
 00005814,0.00009344,0.00007380,-0.00002278,-0.00073666,0.00050343,0.00
 036215,-0.00735611,0.01915298,0.02408839\\0.00000054,-0.00000694,0.000
 00187,0.00000118,-0.00000407,-0.00000312,-0.00001148,-0.00000969,0.000
 01548,0.00001030,-0.00001563,0.00000731,-0.00000238,0.00000531,0.00000
 469,0.00000383,-0.00000919,-0.00000215,-0.00000080,-0.00000221,0.00001
 334,-0.00000781,0.00001347,-0.00000757,0.00000102,-0.00000682,-0.00000
 245,-0.00001028,0.00000370,-0.00000360,0.00000799,0.00000988,0.0000050
 6,-0.00001041,0.00001421,-0.00000562,0.00000634,-0.00001235,0.00002654
 ,0.00000194,-0.00000593,0.00000132,-0.00000749,0.00000732,-0.00000191,
 0.00000825,0.00000214,0.00001192,-0.00000382,0.00001969,0.00000269,0.0
 0001549,0.00000791,-0.00000523,-0.00001441,-0.00001665,-0.00001544,0.0
 0000008,0.00001020,-0.00000449,0.00001310,-0.00001046,-0.00000482,-0.0
 0002314,-0.00000350,0.00001028,0.00002327,-0.00000920,-0.00001247,-0.0
 0000210,-0.00000031,-0.00000424,-0.00000704,0.00000173,0.00000247,-0.0
 0001106,-0.00000955,0.00001485,0.00001043,0.00001133,0.00000055,-0.000
 01661,-0.00000632,-0.00000411,0.00001867,0.00000228,0.00000107,-0.0000
 0734,0.00000374,-0.00000250,0.00000139,0.00000760,-0.00001233,0.000006
 49,-0.00000058,-0.00000129,0.00000718,0.00000322,0.00000178,-0.0000035
 3,-0.00000088,-0.00000401,-0.00000574,0.00000238,0.00000035,-0.0000094
 1,-0.00001056,0.00000471,0.00000445,-0.00001652,-0.00002933,0.00000978
 ,-0.00000036,-0.00000539,0.00000661,0.00001223,-0.00000517,0.00000191,
 0.00000110,-0.00000853,0.00000351,0.00000369,0.00000369,0.00000024,-0.
 00000071,-0.00000259,-0.00000073,-0.00000026,-0.00000200,-0.00000155,-
 0.00000841,0.00000255,0.00000026,-0.00000044,-0.00000138,-0.00000342,-
 0.00000186,0.00000114,0.00000387,-0.00000109,-0.00000157,0.00000819,-0
 .00000993,0.00000838,-0.00000069,-0.00000064,0.00000125,0.00000240,-0.
 00000109,-0.00000020,0.00000064,-0.00000945,-0.00000223,0.00000081,0.0
 0000126,-0.00000300,0.00000241,0.00000372,-0.00000095,-0.00000125,-0.0
 0000189,-0.00000250,-0.00000303,-0.00000263,-0.00000360,-0.00000240,-0
 .00000009,0.00000206,0.00000173,0.00000484,-0.00000063,-0.00000242,0.0
 0000551,0.00000968,0.00000085,-0.00000254,0.00000487,-0.00000571,0.000
 00830,0.00001087,0.00000341,0.00000550,0.00000098,0.00000065,0.0000026
 7,-0.00000359,0.00000303,0.00000189,-0.00000299,0.00000285,0.00000364,
 -0.00000533,0.00000440,0.00000280,-0.00000264,-0.00000419,-0.00000058,
 -0.00000011,0.00000031,0.00000344,0.00000068,0.00000366,-0.00000899,0.
 00000428,-0.00000328,0.00000348,-0.00000100,-0.00000185,-0.00000069,-0
 .00000469,-0.00000301,-0.00000118,-0.00000310,-0.00000160,-0.00000205,
 -0.00000352,0.00000163,0.00000188,-0.00000025,-0.00000144,-0.00000134,
 -0.00000250,0.00000361,-0.00000238,-0.00000324,-0.00000103,-0.00000373
 ,-0.00000195,-0.00000059,-0.00000242,-0.00000248,0.00000221,0.00000251
 ,-0.00000244,-0.00000041,-0.00000010,-0.00000042,0.00000525,0.00001375
 ,0.00000910,-0.00000617,0.00000653,0.00001528,-0.00000657,0.00000279,-
 0.00000213,-0.00000709,0.00000036,-0.00000140,-0.00000291,0.00000419,0
 .00000904\\\@


 FOR THE NATURE OF THE CHEMICAL BOND
 IS THE PROBLEM AT THE HEART OF ALL CHEMISTRY.

                     -- BRYCE CRAWFORD, JR., 1953
 Job cpu time:      18 days 10 hours 12 minutes 55.8 seconds.
 File lengths (MBytes):  RWF=  24202 Int=      0 D2E=      0 Chk=     97 Scr=      1
 Normal termination of Gaussian 09 at Sat Mar 26 00:39:10 2016.
