 Entering Gaussian System, Link 0=g09
 Initial command:
 /share/apps//g09/l1.exe "/scratch/Gau-36722.inp" -scrdir="/scratch/"
 Entering Link 1 = /share/apps//g09/l1.exe PID=     36723.
  
 Copyright (c) 1988,1990,1992,1993,1995,1998,2003,2009,2013,
            Gaussian, Inc.  All Rights Reserved.
  
 This is part of the Gaussian(R) 09 program.  It is based on
 the Gaussian(R) 03 system (copyright 2003, Gaussian, Inc.),
 the Gaussian(R) 98 system (copyright 1998, Gaussian, Inc.),
 the Gaussian(R) 94 system (copyright 1995, Gaussian, Inc.),
 the Gaussian 92(TM) system (copyright 1992, Gaussian, Inc.),
 the Gaussian 90(TM) system (copyright 1990, Gaussian, Inc.),
 the Gaussian 88(TM) system (copyright 1988, Gaussian, Inc.),
 the Gaussian 86(TM) system (copyright 1986, Carnegie Mellon
 University), and the Gaussian 82(TM) system (copyright 1983,
 Carnegie Mellon University). Gaussian is a federally registered
 trademark of Gaussian, Inc.
  
 This software contains proprietary and confidential information,
 including trade secrets, belonging to Gaussian, Inc.
  
 This software is provided under written license and may be
 used, copied, transmitted, or stored only in accord with that
 written license.
  
 The following legend is applicable only to US Government
 contracts under FAR:
  
                    RESTRICTED RIGHTS LEGEND
  
 Use, reproduction and disclosure by the US Government is
 subject to restrictions as set forth in subparagraphs (a)
 and (c) of the Commercial Computer Software - Restricted
 Rights clause in FAR 52.227-19.
  
 Gaussian, Inc.
 340 Quinnipiac St., Bldg. 40, Wallingford CT 06492
  
  
 ---------------------------------------------------------------
 Warning -- This program may not be used in any manner that
 competes with the business of Gaussian, Inc. or will provide
 assistance to any competitor of Gaussian, Inc.  The licensee
 of this program is prohibited from giving any competitor of
 Gaussian, Inc. access to this program.  By using this program,
 the user acknowledges that Gaussian, Inc. is engaged in the
 business of creating and licensing software in the field of
 computational chemistry and represents and warrants to the
 licensee that it is not a competitor of Gaussian, Inc. and that
 it will not use this program in any manner prohibited above.
 ---------------------------------------------------------------
  

 Cite this work as:
 Gaussian 09, Revision D.01,
 M. J. Frisch, G. W. Trucks, H. B. Schlegel, G. E. Scuseria, 
 M. A. Robb, J. R. Cheeseman, G. Scalmani, V. Barone, B. Mennucci, 
 G. A. Petersson, H. Nakatsuji, M. Caricato, X. Li, H. P. Hratchian, 
 A. F. Izmaylov, J. Bloino, G. Zheng, J. L. Sonnenberg, M. Hada, 
 M. Ehara, K. Toyota, R. Fukuda, J. Hasegawa, M. Ishida, T. Nakajima, 
 Y. Honda, O. Kitao, H. Nakai, T. Vreven, J. A. Montgomery, Jr., 
 J. E. Peralta, F. Ogliaro, M. Bearpark, J. J. Heyd, E. Brothers, 
 K. N. Kudin, V. N. Staroverov, T. Keith, R. Kobayashi, J. Normand, 
 K. Raghavachari, A. Rendell, J. C. Burant, S. S. Iyengar, J. Tomasi, 
 M. Cossi, N. Rega, J. M. Millam, M. Klene, J. E. Knox, J. B. Cross, 
 V. Bakken, C. Adamo, J. Jaramillo, R. Gomperts, R. E. Stratmann, 
 O. Yazyev, A. J. Austin, R. Cammi, C. Pomelli, J. W. Ochterski, 
 R. L. Martin, K. Morokuma, V. G. Zakrzewski, G. A. Voth, 
 P. Salvador, J. J. Dannenberg, S. Dapprich, A. D. Daniels, 
 O. Farkas, J. B. Foresman, J. V. Ortiz, J. Cioslowski, 
 and D. J. Fox, Gaussian, Inc., Wallingford CT, 2013.
 
 ******************************************
 Gaussian 09:  EM64L-G09RevD.01 24-Apr-2013
                 1-May-2016 
 ******************************************
 %nproc=20
 Will use up to   20 processors via shared memory.
 %mem=80GB
 %chk=Tri_A131_of.chk
 ----------------------------------------------------------------------
 #P PBE1PBE/6-311+G(d,p) opt=ModRedundant freq optcyc=999 EmpiricalDisp
 ersion=GD3
 ----------------------------------------------------------------------
 1/6=999,14=-1,18=120,19=15,26=3,38=1/1,3;
 2/9=110,12=2,17=6,18=5,40=1/2;
 3/5=4,6=6,7=111,11=2,16=1,25=1,30=1,71=1,74=-13,124=31/1,2,3;
 4//1;
 5/5=2,38=5/2;
 6/7=2,8=2,9=2,10=2,28=1/1;
 7//1,2,3,16;
 1/6=999,14=-1,18=20,19=15,26=3/3(2);
 2/9=110/2;
 99//99;
 2/9=110/2;
 3/5=4,6=6,7=111,11=2,16=1,25=1,30=1,71=1,74=-13,124=31/1,2,3;
 4/5=5,16=3,69=1/1;
 5/5=2,38=5/2;
 7//1,2,3,16;
 1/6=999,14=-1,18=20,19=15,26=3/3(-5);
 2/9=110/2;
 6/7=2,8=2,9=2,10=2,19=2,28=1/1;
 99/9=1/99;
 Leave Link    1 at Sun May  1 23:33:34 2016, MaxMem= 10737418240 cpu:         2.3
 (Enter /share/apps//g09/l101.exe)
 -----
 trich
 -----
 Symbolic Z-matrix:
 Charge =  1 Multiplicity = 1
 O                    -0.41472  -0.36769   7.43991 
 C                    -1.14907  -0.84916   6.32129 
 C                    -0.25752  -0.99997   5.07285 
 C                     0.98955  -1.83147   5.41083 
 C                     1.68036  -1.31958   6.68228 
 C                     0.65453  -1.26927   7.8136 
 H                    -1.93177  -0.09575   6.15179 
 H                     0.06533   0.01814   4.78416 
 H                     0.69178  -2.88178   5.55729 
 H                     2.49627  -2.00768   6.9519 
 H                     0.23909  -2.27796   7.96785 
 O                     2.31378  -0.05734   6.41769 
 O                     1.92249  -1.84201   4.31483 
 O                    -0.96779  -1.58746   3.98077 
 O                    -1.72457  -2.12733   6.55319 
 C                     1.20643  -0.8183    9.15986 
 H                     1.81548   0.0946    9.05475 
 H                     0.35495  -0.60204   9.8269 
 O                     1.99365  -1.91593   9.64887 
 H                     2.5627   -1.58583   10.36309 
 H                     1.63997   0.64055   6.53571 
 H                     2.43554  -1.01035   4.37798 
 H                    -1.92355  -1.5941    4.22779 
 O                    -3.39057  -4.49385   5.90945 
 C                    -3.17656  -4.70555   7.32946 
 C                    -3.09285  -3.33969   8.09696 
 C                    -3.02309  -2.12209   7.15996 
 C                    -4.13344  -2.15102   6.07211 
 C                    -4.50801  -3.60645   5.71235 
 H                    -4.05734  -5.24274   7.72409 
 H                    -2.1843   -3.34678   8.71607 
 H                    -3.13537  -1.22233   7.78324 
 H                    -5.02812  -1.65912   6.48466 
 H                    -5.32808  -3.91732   6.38534 
 O                    -3.6609   -1.39665   4.94008 
 O                    -4.27142  -3.15916   8.89273 
 O                    -2.11882  -5.59952   7.5042 
 C                    -4.9542   -3.79519   4.26148 
 H                    -4.06732  -3.79554   3.60249 
 H                    -5.4618   -4.76628   4.15943 
 O                    -5.83549  -2.70553   3.94069 
 H                    -6.34125  -2.92976   3.14249 
 H                    -4.42443  -1.3541    4.32582 
 H                    -4.13379  -3.59314   9.75137 
 O                     0.99385  -5.80514   5.55689 
 C                     1.95797  -6.02782   6.60624 
 C                     1.62568  -5.12157   7.79267 
 C                     0.16949  -5.27759   8.24656 
 C                    -0.80026  -5.20685   7.06291 
 C                    -0.33092  -6.17701   5.95814 
 H                     1.92574  -7.09907   6.90199 
 H                     1.78461  -4.08466   7.4482 
 H                     0.05883  -6.27178   8.72398 
 H                    -0.33344  -7.20845   6.36816 
 H                    -0.82161  -4.18079   6.66638 
 O                    -0.16822  -4.25267   9.18177 
 O                     2.42826  -5.39726   8.93729 
 O                     3.20904  -5.66216   6.1273 
 C                    -1.19531  -6.19554   4.70492 
 H                    -0.73189  -6.86678   3.9686 
 H                    -2.1938   -6.58276   4.95225 
 O                    -1.31132  -4.90693   4.07841 
 H                    -1.9464   -4.39804   4.63269 
 H                     0.61641  -4.10632   9.7463 
 H                     3.33726  -5.11033   8.73901 
 C                     3.76467  -6.56926   5.13889 
 H                     4.5207   -7.19916   5.63525 
 H                     2.96645  -7.225     4.75873 
 C                     4.40153  -5.76445   4.01154 
 H                     4.85144  -6.48145   3.30402 
 H                     5.23618  -5.17947   4.42818 
 C                     3.45093  -4.80532   3.27802 
 H                     3.04322  -4.10198   4.0193 
 H                     4.04708  -4.20238   2.5726 
 C                     2.31384  -5.49713   2.51276 
 H                     2.73269  -6.21221   1.78566 
 H                     1.69136  -6.08158   3.20723 
 C                     1.41421  -4.55013   1.72135 
 H                     0.67683  -5.11181   1.13238 
 H                     1.99919  -3.92727   1.02919 
 N                     0.64334  -3.6175    2.61268 
 H                     0.03316  -2.98238   2.08377 
 H                     1.2665   -2.98599   3.17091 
 H                    -0.00274  -4.1312    3.27693 
 
 The following ModRedundant input section has been read:
 B      45      84 B                                                           
 B      58      84 B                                                           
 B      56      84 B                                                           
 B      41      82 B                                                           
 B      62      82 B                                                           
 B      35      82 B                                                           
 B      13      83 B                                                           
 B      19      83 B                                                           
 B      14      83 B                                                           
 
 NAtoms=     84 NQM=       84 NQMF=       0 NMMI=      0 NMMIF=      0
                NMic=       0 NMicF=      0.
                    Isotopes and Nuclear Properties:
 (Nuclear quadrupole moments (NQMom) in fm**2, nuclear magnetic moments (NMagM)
  in nuclear magnetons)

  Atom         1           2           3           4           5           6           7           8           9          10
 IAtWgt=          16          12          12          12          12          12           1           1           1           1
 AtmWgt=  15.9949146  12.0000000  12.0000000  12.0000000  12.0000000  12.0000000   1.0078250   1.0078250   1.0078250   1.0078250
 NucSpn=           0           0           0           0           0           0           1           1           1           1
 AtZEff=   0.0000000   0.0000000   0.0000000   0.0000000   0.0000000   0.0000000   0.0000000   0.0000000   0.0000000   0.0000000
 NQMom=    0.0000000   0.0000000   0.0000000   0.0000000   0.0000000   0.0000000   0.0000000   0.0000000   0.0000000   0.0000000
 NMagM=    0.0000000   0.0000000   0.0000000   0.0000000   0.0000000   0.0000000   2.7928460   2.7928460   2.7928460   2.7928460
 AtZNuc=   8.0000000   6.0000000   6.0000000   6.0000000   6.0000000   6.0000000   1.0000000   1.0000000   1.0000000   1.0000000

  Atom        11          12          13          14          15          16          17          18          19          20
 IAtWgt=           1          16          16          16          16          12           1           1          16           1
 AtmWgt=   1.0078250  15.9949146  15.9949146  15.9949146  15.9949146  12.0000000   1.0078250   1.0078250  15.9949146   1.0078250
 NucSpn=           1           0           0           0           0           0           1           1           0           1
 AtZEff=   0.0000000   0.0000000   0.0000000   0.0000000   0.0000000   0.0000000   0.0000000   0.0000000   0.0000000   0.0000000
 NQMom=    0.0000000   0.0000000   0.0000000   0.0000000   0.0000000   0.0000000   0.0000000   0.0000000   0.0000000   0.0000000
 NMagM=    2.7928460   0.0000000   0.0000000   0.0000000   0.0000000   0.0000000   2.7928460   2.7928460   0.0000000   2.7928460
 AtZNuc=   1.0000000   8.0000000   8.0000000   8.0000000   8.0000000   6.0000000   1.0000000   1.0000000   8.0000000   1.0000000

  Atom        21          22          23          24          25          26          27          28          29          30
 IAtWgt=           1           1           1          16          12          12          12          12          12           1
 AtmWgt=   1.0078250   1.0078250   1.0078250  15.9949146  12.0000000  12.0000000  12.0000000  12.0000000  12.0000000   1.0078250
 NucSpn=           1           1           1           0           0           0           0           0           0           1
 AtZEff=   0.0000000   0.0000000   0.0000000   0.0000000   0.0000000   0.0000000   0.0000000   0.0000000   0.0000000   0.0000000
 NQMom=    0.0000000   0.0000000   0.0000000   0.0000000   0.0000000   0.0000000   0.0000000   0.0000000   0.0000000   0.0000000
 NMagM=    2.7928460   2.7928460   2.7928460   0.0000000   0.0000000   0.0000000   0.0000000   0.0000000   0.0000000   2.7928460
 AtZNuc=   1.0000000   1.0000000   1.0000000   8.0000000   6.0000000   6.0000000   6.0000000   6.0000000   6.0000000   1.0000000

  Atom        31          32          33          34          35          36          37          38          39          40
 IAtWgt=           1           1           1           1          16          16          16          12           1           1
 AtmWgt=   1.0078250   1.0078250   1.0078250   1.0078250  15.9949146  15.9949146  15.9949146  12.0000000   1.0078250   1.0078250
 NucSpn=           1           1           1           1           0           0           0           0           1           1
 AtZEff=   0.0000000   0.0000000   0.0000000   0.0000000   0.0000000   0.0000000   0.0000000   0.0000000   0.0000000   0.0000000
 NQMom=    0.0000000   0.0000000   0.0000000   0.0000000   0.0000000   0.0000000   0.0000000   0.0000000   0.0000000   0.0000000
 NMagM=    2.7928460   2.7928460   2.7928460   2.7928460   0.0000000   0.0000000   0.0000000   0.0000000   2.7928460   2.7928460
 AtZNuc=   1.0000000   1.0000000   1.0000000   1.0000000   8.0000000   8.0000000   8.0000000   6.0000000   1.0000000   1.0000000

  Atom        41          42          43          44          45          46          47          48          49          50
 IAtWgt=          16           1           1           1          16          12          12          12          12          12
 AtmWgt=  15.9949146   1.0078250   1.0078250   1.0078250  15.9949146  12.0000000  12.0000000  12.0000000  12.0000000  12.0000000
 NucSpn=           0           1           1           1           0           0           0           0           0           0
 AtZEff=   0.0000000   0.0000000   0.0000000   0.0000000   0.0000000   0.0000000   0.0000000   0.0000000   0.0000000   0.0000000
 NQMom=    0.0000000   0.0000000   0.0000000   0.0000000   0.0000000   0.0000000   0.0000000   0.0000000   0.0000000   0.0000000
 NMagM=    0.0000000   2.7928460   2.7928460   2.7928460   0.0000000   0.0000000   0.0000000   0.0000000   0.0000000   0.0000000
 AtZNuc=   8.0000000   1.0000000   1.0000000   1.0000000   8.0000000   6.0000000   6.0000000   6.0000000   6.0000000   6.0000000

  Atom        51          52          53          54          55          56          57          58          59          60
 IAtWgt=           1           1           1           1           1          16          16          16          12           1
 AtmWgt=   1.0078250   1.0078250   1.0078250   1.0078250   1.0078250  15.9949146  15.9949146  15.9949146  12.0000000   1.0078250
 NucSpn=           1           1           1           1           1           0           0           0           0           1
 AtZEff=   0.0000000   0.0000000   0.0000000   0.0000000   0.0000000   0.0000000   0.0000000   0.0000000   0.0000000   0.0000000
 NQMom=    0.0000000   0.0000000   0.0000000   0.0000000   0.0000000   0.0000000   0.0000000   0.0000000   0.0000000   0.0000000
 NMagM=    2.7928460   2.7928460   2.7928460   2.7928460   2.7928460   0.0000000   0.0000000   0.0000000   0.0000000   2.7928460
 AtZNuc=   1.0000000   1.0000000   1.0000000   1.0000000   1.0000000   8.0000000   8.0000000   8.0000000   6.0000000   1.0000000

  Atom        61          62          63          64          65          66          67          68          69          70
 IAtWgt=           1          16           1           1           1          12           1           1          12           1
 AtmWgt=   1.0078250  15.9949146   1.0078250   1.0078250   1.0078250  12.0000000   1.0078250   1.0078250  12.0000000   1.0078250
 NucSpn=           1           0           1           1           1           0           1           1           0           1
 AtZEff=   0.0000000   0.0000000   0.0000000   0.0000000   0.0000000   0.0000000   0.0000000   0.0000000   0.0000000   0.0000000
 NQMom=    0.0000000   0.0000000   0.0000000   0.0000000   0.0000000   0.0000000   0.0000000   0.0000000   0.0000000   0.0000000
 NMagM=    2.7928460   0.0000000   2.7928460   2.7928460   2.7928460   0.0000000   2.7928460   2.7928460   0.0000000   2.7928460
 AtZNuc=   1.0000000   8.0000000   1.0000000   1.0000000   1.0000000   6.0000000   1.0000000   1.0000000   6.0000000   1.0000000

  Atom        71          72          73          74          75          76          77          78          79          80
 IAtWgt=           1          12           1           1          12           1           1          12           1           1
 AtmWgt=   1.0078250  12.0000000   1.0078250   1.0078250  12.0000000   1.0078250   1.0078250  12.0000000   1.0078250   1.0078250
 NucSpn=           1           0           1           1           0           1           1           0           1           1
 AtZEff=   0.0000000   0.0000000   0.0000000   0.0000000   0.0000000   0.0000000   0.0000000   0.0000000   0.0000000   0.0000000
 NQMom=    0.0000000   0.0000000   0.0000000   0.0000000   0.0000000   0.0000000   0.0000000   0.0000000   0.0000000   0.0000000
 NMagM=    2.7928460   0.0000000   2.7928460   2.7928460   0.0000000   2.7928460   2.7928460   0.0000000   2.7928460   2.7928460
 AtZNuc=   1.0000000   6.0000000   1.0000000   1.0000000   6.0000000   1.0000000   1.0000000   6.0000000   1.0000000   1.0000000

  Atom        81          82          83          84
 IAtWgt=          14           1           1           1
 AtmWgt=  14.0030740   1.0078250   1.0078250   1.0078250
 NucSpn=           2           1           1           1
 AtZEff=   0.0000000   0.0000000   0.0000000   0.0000000
 NQMom=    2.0440000   0.0000000   0.0000000   0.0000000
 NMagM=    0.4037610   2.7928460   2.7928460   2.7928460
 AtZNuc=   7.0000000   1.0000000   1.0000000   1.0000000
 Leave Link  101 at Sun May  1 23:33:35 2016, MaxMem= 10737418240 cpu:         4.7
 (Enter /share/apps//g09/l103.exe)

 GradGradGradGradGradGradGradGradGradGradGradGradGradGradGradGradGradGrad
 Berny optimization.
 Initialization pass.
                           ----------------------------
                           !    Initial Parameters    !
                           ! (Angstroms and Degrees)  !
 --------------------------                            --------------------------
 ! Name  Definition              Value          Derivative Info.                !
 --------------------------------------------------------------------------------
 ! R1    R(1,2)                  1.4221         estimate D2E/DX2                !
 ! R2    R(1,6)                  1.4477         estimate D2E/DX2                !
 ! R3    R(2,3)                  1.5415         estimate D2E/DX2                !
 ! R4    R(2,7)                  1.0995         estimate D2E/DX2                !
 ! R5    R(2,15)                 1.4208         estimate D2E/DX2                !
 ! R6    R(3,4)                  1.5365         estimate D2E/DX2                !
 ! R7    R(3,8)                  1.1064         estimate D2E/DX2                !
 ! R8    R(3,14)                 1.4291         estimate D2E/DX2                !
 ! R9    R(4,5)                  1.5349         estimate D2E/DX2                !
 ! R10   R(4,9)                  1.1015         estimate D2E/DX2                !
 ! R11   R(4,13)                 1.4393         estimate D2E/DX2                !
 ! R12   R(5,6)                  1.528          estimate D2E/DX2                !
 ! R13   R(5,10)                 1.1009         estimate D2E/DX2                !
 ! R14   R(5,12)                 1.4368         estimate D2E/DX2                !
 ! R15   R(6,11)                 1.1017         estimate D2E/DX2                !
 ! R16   R(6,16)                 1.5233         estimate D2E/DX2                !
 ! R17   R(12,21)                0.9772         estimate D2E/DX2                !
 ! R18   R(13,22)                0.9792         estimate D2E/DX2                !
 ! R19   R(13,83)                1.7457         estimate D2E/DX2                !
 ! R20   R(14,23)                0.9872         estimate D2E/DX2                !
 ! R21   R(14,83)                2.7575         estimate D2E/DX2                !
 ! R22   R(15,27)                1.4333         estimate D2E/DX2                !
 ! R23   R(16,17)                1.1024         estimate D2E/DX2                !
 ! R24   R(16,18)                1.1031         estimate D2E/DX2                !
 ! R25   R(16,19)                1.4365         estimate D2E/DX2                !
 ! R26   R(19,20)                0.971          estimate D2E/DX2                !
 ! R27   R(19,83)                6.6059         estimate D2E/DX2                !
 ! R28   R(24,25)                1.4516         estimate D2E/DX2                !
 ! R29   R(24,29)                1.4405         estimate D2E/DX2                !
 ! R30   R(25,26)                1.569          estimate D2E/DX2                !
 ! R31   R(25,30)                1.1046         estimate D2E/DX2                !
 ! R32   R(25,37)                1.3959         estimate D2E/DX2                !
 ! R33   R(26,27)                1.538          estimate D2E/DX2                !
 ! R34   R(26,31)                1.0995         estimate D2E/DX2                !
 ! R35   R(26,36)                1.4335         estimate D2E/DX2                !
 ! R36   R(27,28)                1.5547         estimate D2E/DX2                !
 ! R37   R(27,32)                1.1003         estimate D2E/DX2                !
 ! R38   R(28,29)                1.5453         estimate D2E/DX2                !
 ! R39   R(28,33)                1.1012         estimate D2E/DX2                !
 ! R40   R(28,35)                1.4401         estimate D2E/DX2                !
 ! R41   R(29,34)                1.1055         estimate D2E/DX2                !
 ! R42   R(29,38)                1.5296         estimate D2E/DX2                !
 ! R43   R(35,43)                0.9809         estimate D2E/DX2                !
 ! R44   R(35,82)                4.9314         estimate D2E/DX2                !
 ! R45   R(36,44)                0.9719         estimate D2E/DX2                !
 ! R46   R(37,49)                1.4448         estimate D2E/DX2                !
 ! R47   R(38,39)                1.1049         estimate D2E/DX2                !
 ! R48   R(38,40)                1.1005         estimate D2E/DX2                !
 ! R49   R(38,41)                1.4377         estimate D2E/DX2                !
 ! R50   R(41,42)                0.9712         estimate D2E/DX2                !
 ! R51   R(41,82)                6.1616         estimate D2E/DX2                !
 ! R52   R(45,46)                1.4423         estimate D2E/DX2                !
 ! R53   R(45,50)                1.4333         estimate D2E/DX2                !
 ! R54   R(45,84)                2.9989         estimate D2E/DX2                !
 ! R55   R(46,47)                1.5295         estimate D2E/DX2                !
 ! R56   R(46,51)                1.1118         estimate D2E/DX2                !
 ! R57   R(46,58)                1.3886         estimate D2E/DX2                !
 ! R58   R(47,48)                1.5332         estimate D2E/DX2                !
 ! R59   R(47,52)                1.1041         estimate D2E/DX2                !
 ! R60   R(47,57)                1.4249         estimate D2E/DX2                !
 ! R61   R(48,49)                1.5318         estimate D2E/DX2                !
 ! R62   R(48,53)                1.1084         estimate D2E/DX2                !
 ! R63   R(48,56)                1.428          estimate D2E/DX2                !
 ! R64   R(49,50)                1.5434         estimate D2E/DX2                !
 ! R65   R(49,55)                1.1002         estimate D2E/DX2                !
 ! R66   R(50,54)                1.11           estimate D2E/DX2                !
 ! R67   R(50,59)                1.5225         estimate D2E/DX2                !
 ! R68   R(56,64)                0.9776         estimate D2E/DX2                !
 ! R69   R(56,84)                5.9084         estimate D2E/DX2                !
 ! R70   R(57,65)                0.9736         estimate D2E/DX2                !
 ! R71   R(58,66)                1.4521         estimate D2E/DX2                !
 ! R72   R(58,84)                4.5589         estimate D2E/DX2                !
 ! R73   R(59,60)                1.0989         estimate D2E/DX2                !
 ! R74   R(59,61)                1.0991         estimate D2E/DX2                !
 ! R75   R(59,62)                1.4375         estimate D2E/DX2                !
 ! R76   R(62,63)                0.9846         estimate D2E/DX2                !
 ! R77   R(62,82)                3.0806         estimate D2E/DX2                !
 ! R78   R(66,67)                1.1021         estimate D2E/DX2                !
 ! R79   R(66,68)                1.1008         estimate D2E/DX2                !
 ! R80   R(66,69)                1.5245         estimate D2E/DX2                !
 ! R81   R(69,70)                1.1032         estimate D2E/DX2                !
 ! R82   R(69,71)                1.1011         estimate D2E/DX2                !
 ! R83   R(69,72)                1.5368         estimate D2E/DX2                !
 ! R84   R(72,73)                1.1002         estimate D2E/DX2                !
 ! R85   R(72,74)                1.103          estimate D2E/DX2                !
 ! R86   R(72,75)                1.5353         estimate D2E/DX2                !
 ! R87   R(75,76)                1.1025         estimate D2E/DX2                !
 ! R88   R(75,77)                1.1006         estimate D2E/DX2                !
 ! R89   R(75,78)                1.5272         estimate D2E/DX2                !
 ! R90   R(78,79)                1.0982         estimate D2E/DX2                !
 ! R91   R(78,80)                1.0997         estimate D2E/DX2                !
 ! R92   R(78,81)                1.5028         estimate D2E/DX2                !
 ! R93   R(81,82)                1.0273         estimate D2E/DX2                !
 ! R94   R(81,83)                1.0482         estimate D2E/DX2                !
 ! R95   R(81,84)                1.0595         estimate D2E/DX2                !
 ! A1    A(2,1,6)              111.9373         estimate D2E/DX2                !
 ! A2    A(1,2,3)              111.8092         estimate D2E/DX2                !
 ! A3    A(1,2,7)              104.8837         estimate D2E/DX2                !
 ! A4    A(1,2,15)             112.6653         estimate D2E/DX2                !
 ! A5    A(3,2,7)              110.7258         estimate D2E/DX2                !
 ! A6    A(3,2,15)             106.1674         estimate D2E/DX2                !
 ! A7    A(7,2,15)             110.6859         estimate D2E/DX2                !
 ! A8    A(2,3,4)              110.134          estimate D2E/DX2                !
 ! A9    A(2,3,8)              106.8618         estimate D2E/DX2                !
 ! A10   A(2,3,14)             111.8185         estimate D2E/DX2                !
 ! A11   A(4,3,8)              108.5748         estimate D2E/DX2                !
 ! A12   A(4,3,14)             110.4272         estimate D2E/DX2                !
 ! A13   A(8,3,14)             108.9004         estimate D2E/DX2                !
 ! A14   A(3,4,5)              111.5326         estimate D2E/DX2                !
 ! A15   A(3,4,9)              109.0177         estimate D2E/DX2                !
 ! A16   A(3,4,13)             111.2565         estimate D2E/DX2                !
 ! A17   A(5,4,9)              109.2407         estimate D2E/DX2                !
 ! A18   A(5,4,13)             109.9676         estimate D2E/DX2                !
 ! A19   A(9,4,13)             105.6339         estimate D2E/DX2                !
 ! A20   A(4,5,6)              108.7927         estimate D2E/DX2                !
 ! A21   A(4,5,10)             109.1475         estimate D2E/DX2                !
 ! A22   A(4,5,12)             109.807          estimate D2E/DX2                !
 ! A23   A(6,5,10)             109.6837         estimate D2E/DX2                !
 ! A24   A(6,5,12)             113.79           estimate D2E/DX2                !
 ! A25   A(10,5,12)            105.5139         estimate D2E/DX2                !
 ! A26   A(1,6,5)              108.9807         estimate D2E/DX2                !
 ! A27   A(1,6,11)             109.1358         estimate D2E/DX2                !
 ! A28   A(1,6,16)             108.1412         estimate D2E/DX2                !
 ! A29   A(5,6,11)             109.0667         estimate D2E/DX2                !
 ! A30   A(5,6,16)             114.8892         estimate D2E/DX2                !
 ! A31   A(11,6,16)            106.4949         estimate D2E/DX2                !
 ! A32   A(5,12,21)            107.5275         estimate D2E/DX2                !
 ! A33   A(4,13,22)            106.5156         estimate D2E/DX2                !
 ! A34   A(4,13,83)            105.0817         estimate D2E/DX2                !
 ! A35   A(22,13,83)           142.7208         estimate D2E/DX2                !
 ! A36   A(3,14,23)            107.0218         estimate D2E/DX2                !
 ! A37   A(3,14,83)             91.732          estimate D2E/DX2                !
 ! A38   A(23,14,83)           148.7092         estimate D2E/DX2                !
 ! A39   A(2,15,27)            115.6434         estimate D2E/DX2                !
 ! A40   A(6,16,17)            111.1646         estimate D2E/DX2                !
 ! A41   A(6,16,18)            108.2287         estimate D2E/DX2                !
 ! A42   A(6,16,19)            105.8541         estimate D2E/DX2                !
 ! A43   A(17,16,18)           108.7697         estimate D2E/DX2                !
 ! A44   A(17,16,19)           111.2491         estimate D2E/DX2                !
 ! A45   A(18,16,19)           111.5286         estimate D2E/DX2                !
 ! A46   A(16,19,20)           108.1663         estimate D2E/DX2                !
 ! A47   A(16,19,83)            74.3138         estimate D2E/DX2                !
 ! A48   A(20,19,83)           147.2311         estimate D2E/DX2                !
 ! A49   A(25,24,29)           109.7593         estimate D2E/DX2                !
 ! A50   A(24,25,26)           111.0662         estimate D2E/DX2                !
 ! A51   A(24,25,30)           107.6299         estimate D2E/DX2                !
 ! A52   A(24,25,37)           109.1219         estimate D2E/DX2                !
 ! A53   A(26,25,30)           106.927          estimate D2E/DX2                !
 ! A54   A(26,25,37)           117.1202         estimate D2E/DX2                !
 ! A55   A(30,25,37)           104.3616         estimate D2E/DX2                !
 ! A56   A(25,26,27)           113.1785         estimate D2E/DX2                !
 ! A57   A(25,26,31)           108.2964         estimate D2E/DX2                !
 ! A58   A(25,26,36)           109.7141         estimate D2E/DX2                !
 ! A59   A(27,26,31)           108.1007         estimate D2E/DX2                !
 ! A60   A(27,26,36)           106.0095         estimate D2E/DX2                !
 ! A61   A(31,26,36)           111.5694         estimate D2E/DX2                !
 ! A62   A(15,27,26)           107.2243         estimate D2E/DX2                !
 ! A63   A(15,27,28)           110.5328         estimate D2E/DX2                !
 ! A64   A(15,27,32)           109.5874         estimate D2E/DX2                !
 ! A65   A(26,27,28)           112.2821         estimate D2E/DX2                !
 ! A66   A(26,27,32)           107.3168         estimate D2E/DX2                !
 ! A67   A(28,27,32)           109.7977         estimate D2E/DX2                !
 ! A68   A(27,28,29)           110.7036         estimate D2E/DX2                !
 ! A69   A(27,28,33)           108.0471         estimate D2E/DX2                !
 ! A70   A(27,28,35)           107.8145         estimate D2E/DX2                !
 ! A71   A(29,28,33)           108.1195         estimate D2E/DX2                !
 ! A72   A(29,28,35)           112.948          estimate D2E/DX2                !
 ! A73   A(33,28,35)           109.0928         estimate D2E/DX2                !
 ! A74   A(24,29,28)           111.12           estimate D2E/DX2                !
 ! A75   A(24,29,34)           108.5981         estimate D2E/DX2                !
 ! A76   A(24,29,38)           106.2634         estimate D2E/DX2                !
 ! A77   A(28,29,34)           107.6341         estimate D2E/DX2                !
 ! A78   A(28,29,38)           114.0629         estimate D2E/DX2                !
 ! A79   A(34,29,38)           109.0473         estimate D2E/DX2                !
 ! A80   A(28,35,43)           105.0449         estimate D2E/DX2                !
 ! A81   A(28,35,82)           122.1853         estimate D2E/DX2                !
 ! A82   A(43,35,82)           103.5522         estimate D2E/DX2                !
 ! A83   A(26,36,44)           108.529          estimate D2E/DX2                !
 ! A84   A(25,37,49)           118.6358         estimate D2E/DX2                !
 ! A85   A(29,38,39)           109.3668         estimate D2E/DX2                !
 ! A86   A(29,38,40)           109.3528         estimate D2E/DX2                !
 ! A87   A(29,38,41)           107.2734         estimate D2E/DX2                !
 ! A88   A(39,38,40)           108.3393         estimate D2E/DX2                !
 ! A89   A(39,38,41)           111.0507         estimate D2E/DX2                !
 ! A90   A(40,38,41)           111.4305         estimate D2E/DX2                !
 ! A91   A(38,41,42)           109.1244         estimate D2E/DX2                !
 ! A92   A(38,41,82)            56.5881         estimate D2E/DX2                !
 ! A93   A(42,41,82)           103.765          estimate D2E/DX2                !
 ! A94   A(46,45,50)           111.9694         estimate D2E/DX2                !
 ! A95   A(46,45,84)           149.4794         estimate D2E/DX2                !
 ! A96   A(50,45,84)            92.8947         estimate D2E/DX2                !
 ! A97   A(45,46,47)           109.1267         estimate D2E/DX2                !
 ! A98   A(45,46,51)           108.8396         estimate D2E/DX2                !
 ! A99   A(45,46,58)           108.0986         estimate D2E/DX2                !
 ! A100  A(47,46,51)           110.9939         estimate D2E/DX2                !
 ! A101  A(47,46,58)           107.8938         estimate D2E/DX2                !
 ! A102  A(51,46,58)           111.8137         estimate D2E/DX2                !
 ! A103  A(46,47,48)           112.0662         estimate D2E/DX2                !
 ! A104  A(46,47,52)           106.4494         estimate D2E/DX2                !
 ! A105  A(46,47,57)           112.7131         estimate D2E/DX2                !
 ! A106  A(48,47,52)           108.943          estimate D2E/DX2                !
 ! A107  A(48,47,57)           106.1086         estimate D2E/DX2                !
 ! A108  A(52,47,57)           110.5635         estimate D2E/DX2                !
 ! A109  A(47,48,49)           111.5806         estimate D2E/DX2                !
 ! A110  A(47,48,53)           108.2762         estimate D2E/DX2                !
 ! A111  A(47,48,56)           110.2093         estimate D2E/DX2                !
 ! A112  A(49,48,53)           108.1221         estimate D2E/DX2                !
 ! A113  A(49,48,56)           108.8565         estimate D2E/DX2                !
 ! A114  A(53,48,56)           109.7597         estimate D2E/DX2                !
 ! A115  A(37,49,48)           109.2196         estimate D2E/DX2                !
 ! A116  A(37,49,50)           108.9847         estimate D2E/DX2                !
 ! A117  A(37,49,55)           110.2322         estimate D2E/DX2                !
 ! A118  A(48,49,50)           109.3642         estimate D2E/DX2                !
 ! A119  A(48,49,55)           109.5023         estimate D2E/DX2                !
 ! A120  A(50,49,55)           109.5202         estimate D2E/DX2                !
 ! A121  A(45,50,49)           108.5649         estimate D2E/DX2                !
 ! A122  A(45,50,54)           110.2804         estimate D2E/DX2                !
 ! A123  A(45,50,59)           107.3061         estimate D2E/DX2                !
 ! A124  A(49,50,54)           108.6036         estimate D2E/DX2                !
 ! A125  A(49,50,59)           115.1003         estimate D2E/DX2                !
 ! A126  A(54,50,59)           106.9457         estimate D2E/DX2                !
 ! A127  A(48,56,64)           107.2067         estimate D2E/DX2                !
 ! A128  A(48,56,84)            49.73           estimate D2E/DX2                !
 ! A129  A(64,56,84)           123.473          estimate D2E/DX2                !
 ! A130  A(47,57,65)           107.7739         estimate D2E/DX2                !
 ! A131  A(46,58,66)           114.5204         estimate D2E/DX2                !
 ! A132  A(46,58,84)            70.6921         estimate D2E/DX2                !
 ! A133  A(66,58,84)            93.0824         estimate D2E/DX2                !
 ! A134  A(50,59,60)           108.6363         estimate D2E/DX2                !
 ! A135  A(50,59,61)           109.5614         estimate D2E/DX2                !
 ! A136  A(50,59,62)           113.1814         estimate D2E/DX2                !
 ! A137  A(60,59,61)           108.584          estimate D2E/DX2                !
 ! A138  A(60,59,62)           106.8322         estimate D2E/DX2                !
 ! A139  A(61,59,62)           109.9109         estimate D2E/DX2                !
 ! A140  A(59,62,63)           105.6644         estimate D2E/DX2                !
 ! A141  A(59,62,82)           143.8021         estimate D2E/DX2                !
 ! A142  A(63,62,82)           108.8505         estimate D2E/DX2                !
 ! A143  A(58,66,67)           108.2373         estimate D2E/DX2                !
 ! A144  A(58,66,68)           109.2534         estimate D2E/DX2                !
 ! A145  A(58,66,69)           109.4763         estimate D2E/DX2                !
 ! A146  A(67,66,68)           108.2099         estimate D2E/DX2                !
 ! A147  A(67,66,69)           110.376          estimate D2E/DX2                !
 ! A148  A(68,66,69)           111.2244         estimate D2E/DX2                !
 ! A149  A(66,69,70)           107.5481         estimate D2E/DX2                !
 ! A150  A(66,69,71)           108.5            estimate D2E/DX2                !
 ! A151  A(66,69,72)           115.0896         estimate D2E/DX2                !
 ! A152  A(70,69,71)           106.1896         estimate D2E/DX2                !
 ! A153  A(70,69,72)           110.5962         estimate D2E/DX2                !
 ! A154  A(71,69,72)           108.5371         estimate D2E/DX2                !
 ! A155  A(69,72,73)           107.8561         estimate D2E/DX2                !
 ! A156  A(69,72,74)           108.1868         estimate D2E/DX2                !
 ! A157  A(69,72,75)           114.5076         estimate D2E/DX2                !
 ! A158  A(73,72,74)           106.3647         estimate D2E/DX2                !
 ! A159  A(73,72,75)           110.4529         estimate D2E/DX2                !
 ! A160  A(74,72,75)           109.1377         estimate D2E/DX2                !
 ! A161  A(72,75,76)           109.8535         estimate D2E/DX2                !
 ! A162  A(72,75,77)           110.0993         estimate D2E/DX2                !
 ! A163  A(72,75,78)           114.5289         estimate D2E/DX2                !
 ! A164  A(76,75,77)           106.6538         estimate D2E/DX2                !
 ! A165  A(76,75,78)           106.5123         estimate D2E/DX2                !
 ! A166  A(77,75,78)           108.8499         estimate D2E/DX2                !
 ! A167  A(75,78,79)           110.872          estimate D2E/DX2                !
 ! A168  A(75,78,80)           111.3478         estimate D2E/DX2                !
 ! A169  A(75,78,81)           112.3099         estimate D2E/DX2                !
 ! A170  A(79,78,80)           108.0174         estimate D2E/DX2                !
 ! A171  A(79,78,81)           106.9215         estimate D2E/DX2                !
 ! A172  A(80,78,81)           107.1384         estimate D2E/DX2                !
 ! A173  A(78,81,82)           112.5173         estimate D2E/DX2                !
 ! A174  A(78,81,83)           112.6307         estimate D2E/DX2                !
 ! A175  A(78,81,84)           112.5659         estimate D2E/DX2                !
 ! A176  A(82,81,83)           104.7628         estimate D2E/DX2                !
 ! A177  A(82,81,84)           105.0898         estimate D2E/DX2                !
 ! A178  A(83,81,84)           108.708          estimate D2E/DX2                !
 ! A179  A(35,82,41)            25.5161         estimate D2E/DX2                !
 ! A180  A(35,82,62)            59.9295         estimate D2E/DX2                !
 ! A181  A(35,82,81)           110.2127         estimate D2E/DX2                !
 ! A182  A(41,82,62)            54.3564         estimate D2E/DX2                !
 ! A183  A(41,82,81)           115.9967         estimate D2E/DX2                !
 ! A184  A(62,82,81)            62.5905         estimate D2E/DX2                !
 ! A185  A(13,83,14)            77.2716         estimate D2E/DX2                !
 ! A186  A(13,83,19)            37.8059         estimate D2E/DX2                !
 ! A187  A(14,83,19)            73.6819         estimate D2E/DX2                !
 ! A188  A(14,83,81)            88.8691         estimate D2E/DX2                !
 ! A189  A(19,83,81)           133.2569         estimate D2E/DX2                !
 ! A190  A(45,84,56)            40.3617         estimate D2E/DX2                !
 ! A191  A(45,84,58)            26.2467         estimate D2E/DX2                !
 ! A192  A(45,84,81)           122.9997         estimate D2E/DX2                !
 ! A193  A(56,84,58)            52.2642         estimate D2E/DX2                !
 ! A194  A(56,84,81)           130.8148         estimate D2E/DX2                !
 ! A195  A(58,84,81)            97.1924         estimate D2E/DX2                !
 ! A196  L(13,83,81,14,-1)     166.1407         estimate D2E/DX2                !
 ! A197  L(13,83,81,14,-2)     185.0151         estimate D2E/DX2                !
 ! D1    D(6,1,2,3)            -60.9751         estimate D2E/DX2                !
 ! D2    D(6,1,2,7)            178.9744         estimate D2E/DX2                !
 ! D3    D(6,1,2,15)            58.5046         estimate D2E/DX2                !
 ! D4    D(2,1,6,5)             65.1679         estimate D2E/DX2                !
 ! D5    D(2,1,6,11)           -53.8446         estimate D2E/DX2                !
 ! D6    D(2,1,6,16)          -169.3086         estimate D2E/DX2                !
 ! D7    D(1,2,3,4)             51.9886         estimate D2E/DX2                !
 ! D8    D(1,2,3,8)            -65.7629         estimate D2E/DX2                !
 ! D9    D(1,2,3,14)           175.1632         estimate D2E/DX2                !
 ! D10   D(7,2,3,4)            168.5537         estimate D2E/DX2                !
 ! D11   D(7,2,3,8)             50.8022         estimate D2E/DX2                !
 ! D12   D(7,2,3,14)           -68.2717         estimate D2E/DX2                !
 ! D13   D(15,2,3,4)           -71.2519         estimate D2E/DX2                !
 ! D14   D(15,2,3,8)           170.9966         estimate D2E/DX2                !
 ! D15   D(15,2,3,14)           51.9227         estimate D2E/DX2                !
 ! D16   D(1,2,15,27)           87.7145         estimate D2E/DX2                !
 ! D17   D(3,2,15,27)         -149.5846         estimate D2E/DX2                !
 ! D18   D(7,2,15,27)          -29.3644         estimate D2E/DX2                !
 ! D19   D(2,3,4,5)            -49.2974         estimate D2E/DX2                !
 ! D20   D(2,3,4,9)             71.4138         estimate D2E/DX2                !
 ! D21   D(2,3,4,13)          -172.4863         estimate D2E/DX2                !
 ! D22   D(8,3,4,5)             67.39           estimate D2E/DX2                !
 ! D23   D(8,3,4,9)           -171.8987         estimate D2E/DX2                !
 ! D24   D(8,3,4,13)           -55.7988         estimate D2E/DX2                !
 ! D25   D(14,3,4,5)          -173.2817         estimate D2E/DX2                !
 ! D26   D(14,3,4,9)           -52.5705         estimate D2E/DX2                !
 ! D27   D(14,3,4,13)           63.5294         estimate D2E/DX2                !
 ! D28   D(2,3,14,23)           11.213          estimate D2E/DX2                !
 ! D29   D(2,3,14,83)         -143.39           estimate D2E/DX2                !
 ! D30   D(4,3,14,23)          134.2213         estimate D2E/DX2                !
 ! D31   D(4,3,14,83)          -20.3816         estimate D2E/DX2                !
 ! D32   D(8,3,14,23)         -106.6478         estimate D2E/DX2                !
 ! D33   D(8,3,14,83)           98.7492         estimate D2E/DX2                !
 ! D34   D(3,4,5,6)             53.9617         estimate D2E/DX2                !
 ! D35   D(3,4,5,10)           173.6172         estimate D2E/DX2                !
 ! D36   D(3,4,5,12)           -71.1695         estimate D2E/DX2                !
 ! D37   D(9,4,5,6)            -66.619          estimate D2E/DX2                !
 ! D38   D(9,4,5,10)            53.0364         estimate D2E/DX2                !
 ! D39   D(9,4,5,12)           168.2498         estimate D2E/DX2                !
 ! D40   D(13,4,5,6)           177.8815         estimate D2E/DX2                !
 ! D41   D(13,4,5,10)          -62.4631         estimate D2E/DX2                !
 ! D42   D(13,4,5,12)           52.7503         estimate D2E/DX2                !
 ! D43   D(3,4,13,22)           82.0715         estimate D2E/DX2                !
 ! D44   D(3,4,13,83)          -77.8869         estimate D2E/DX2                !
 ! D45   D(5,4,13,22)          -42.0087         estimate D2E/DX2                !
 ! D46   D(5,4,13,83)          158.0329         estimate D2E/DX2                !
 ! D47   D(9,4,13,22)         -159.7681         estimate D2E/DX2                !
 ! D48   D(9,4,13,83)           40.2735         estimate D2E/DX2                !
 ! D49   D(4,5,6,1)            -60.3157         estimate D2E/DX2                !
 ! D50   D(4,5,6,11)            58.7399         estimate D2E/DX2                !
 ! D51   D(4,5,6,16)           178.1808         estimate D2E/DX2                !
 ! D52   D(10,5,6,1)          -179.6369         estimate D2E/DX2                !
 ! D53   D(10,5,6,11)          -60.5812         estimate D2E/DX2                !
 ! D54   D(10,5,6,16)           58.8596         estimate D2E/DX2                !
 ! D55   D(12,5,6,1)            62.4486         estimate D2E/DX2                !
 ! D56   D(12,5,6,11)         -178.4958         estimate D2E/DX2                !
 ! D57   D(12,5,6,16)          -59.0549         estimate D2E/DX2                !
 ! D58   D(4,5,12,21)           85.2581         estimate D2E/DX2                !
 ! D59   D(6,5,12,21)          -36.9483         estimate D2E/DX2                !
 ! D60   D(10,5,12,21)        -157.2397         estimate D2E/DX2                !
 ! D61   D(1,6,16,17)          -73.9717         estimate D2E/DX2                !
 ! D62   D(1,6,16,18)           45.42           estimate D2E/DX2                !
 ! D63   D(1,6,16,19)          165.1004         estimate D2E/DX2                !
 ! D64   D(5,6,16,17)           47.9876         estimate D2E/DX2                !
 ! D65   D(5,6,16,18)          167.3793         estimate D2E/DX2                !
 ! D66   D(5,6,16,19)          -72.9402         estimate D2E/DX2                !
 ! D67   D(11,6,16,17)         168.8486         estimate D2E/DX2                !
 ! D68   D(11,6,16,18)         -71.7597         estimate D2E/DX2                !
 ! D69   D(11,6,16,19)          47.9207         estimate D2E/DX2                !
 ! D70   D(4,13,83,14)          42.4262         estimate D2E/DX2                !
 ! D71   D(4,13,83,19)         -37.2758         estimate D2E/DX2                !
 ! D72   D(22,13,83,14)       -104.723          estimate D2E/DX2                !
 ! D73   D(22,13,83,19)        175.575          estimate D2E/DX2                !
 ! D74   D(3,14,83,13)         -12.9345         estimate D2E/DX2                !
 ! D75   D(3,14,83,19)          25.9998         estimate D2E/DX2                !
 ! D76   D(3,14,83,81)         162.0504         estimate D2E/DX2                !
 ! D77   D(23,14,83,13)       -140.7872         estimate D2E/DX2                !
 ! D78   D(23,14,83,19)       -101.8528         estimate D2E/DX2                !
 ! D79   D(23,14,83,81)         34.1978         estimate D2E/DX2                !
 ! D80   D(2,15,27,26)        -144.5982         estimate D2E/DX2                !
 ! D81   D(2,15,27,28)          92.7174         estimate D2E/DX2                !
 ! D82   D(2,15,27,32)         -28.4249         estimate D2E/DX2                !
 ! D83   D(6,16,19,20)         163.8286         estimate D2E/DX2                !
 ! D84   D(6,16,19,83)          18.031          estimate D2E/DX2                !
 ! D85   D(17,16,19,20)         42.9555         estimate D2E/DX2                !
 ! D86   D(17,16,19,83)       -102.8421         estimate D2E/DX2                !
 ! D87   D(18,16,19,20)        -78.681          estimate D2E/DX2                !
 ! D88   D(18,16,19,83)        135.5213         estimate D2E/DX2                !
 ! D89   D(16,19,83,13)         61.086          estimate D2E/DX2                !
 ! D90   D(16,19,83,14)        -29.0759         estimate D2E/DX2                !
 ! D91   D(16,19,83,81)       -101.3955         estimate D2E/DX2                !
 ! D92   D(20,19,83,13)        -38.2388         estimate D2E/DX2                !
 ! D93   D(20,19,83,14)       -128.4007         estimate D2E/DX2                !
 ! D94   D(20,19,83,81)        159.2797         estimate D2E/DX2                !
 ! D95   D(29,24,25,26)        -51.2674         estimate D2E/DX2                !
 ! D96   D(29,24,25,30)         65.463          estimate D2E/DX2                !
 ! D97   D(29,24,25,37)        178.1468         estimate D2E/DX2                !
 ! D98   D(25,24,29,28)         73.5954         estimate D2E/DX2                !
 ! D99   D(25,24,29,34)        -44.6093         estimate D2E/DX2                !
 ! D100  D(25,24,29,38)       -161.7934         estimate D2E/DX2                !
 ! D101  D(24,25,26,27)         -9.4317         estimate D2E/DX2                !
 ! D102  D(24,25,26,31)       -129.2687         estimate D2E/DX2                !
 ! D103  D(24,25,26,36)        108.7399         estimate D2E/DX2                !
 ! D104  D(30,25,26,27)       -126.5922         estimate D2E/DX2                !
 ! D105  D(30,25,26,31)        113.5708         estimate D2E/DX2                !
 ! D106  D(30,25,26,36)         -8.4206         estimate D2E/DX2                !
 ! D107  D(37,25,26,27)        116.8452         estimate D2E/DX2                !
 ! D108  D(37,25,26,31)         -2.9918         estimate D2E/DX2                !
 ! D109  D(37,25,26,36)       -124.9832         estimate D2E/DX2                !
 ! D110  D(24,25,37,49)         64.2042         estimate D2E/DX2                !
 ! D111  D(26,25,37,49)        -63.0252         estimate D2E/DX2                !
 ! D112  D(30,25,37,49)        179.0178         estimate D2E/DX2                !
 ! D113  D(25,26,27,15)        -71.5089         estimate D2E/DX2                !
 ! D114  D(25,26,27,28)         50.0839         estimate D2E/DX2                !
 ! D115  D(25,26,27,32)        170.8256         estimate D2E/DX2                !
 ! D116  D(31,26,27,15)         48.4401         estimate D2E/DX2                !
 ! D117  D(31,26,27,28)        170.0328         estimate D2E/DX2                !
 ! D118  D(31,26,27,32)        -69.2254         estimate D2E/DX2                !
 ! D119  D(36,26,27,15)        168.1863         estimate D2E/DX2                !
 ! D120  D(36,26,27,28)        -70.221          estimate D2E/DX2                !
 ! D121  D(36,26,27,32)         50.5208         estimate D2E/DX2                !
 ! D122  D(25,26,36,44)         86.3905         estimate D2E/DX2                !
 ! D123  D(27,26,36,44)       -151.0764         estimate D2E/DX2                !
 ! D124  D(31,26,36,44)        -33.6255         estimate D2E/DX2                !
 ! D125  D(15,27,28,29)         89.5813         estimate D2E/DX2                !
 ! D126  D(15,27,28,33)       -152.2013         estimate D2E/DX2                !
 ! D127  D(15,27,28,35)        -34.4229         estimate D2E/DX2                !
 ! D128  D(26,27,28,29)        -30.1009         estimate D2E/DX2                !
 ! D129  D(26,27,28,33)         88.1165         estimate D2E/DX2                !
 ! D130  D(26,27,28,35)       -154.1051         estimate D2E/DX2                !
 ! D131  D(32,27,28,29)       -149.4012         estimate D2E/DX2                !
 ! D132  D(32,27,28,33)        -31.1838         estimate D2E/DX2                !
 ! D133  D(32,27,28,35)         86.5946         estimate D2E/DX2                !
 ! D134  D(27,28,29,24)        -28.6595         estimate D2E/DX2                !
 ! D135  D(27,28,29,34)         90.1263         estimate D2E/DX2                !
 ! D136  D(27,28,29,38)       -148.7441         estimate D2E/DX2                !
 ! D137  D(33,28,29,24)       -146.8327         estimate D2E/DX2                !
 ! D138  D(33,28,29,34)        -28.047          estimate D2E/DX2                !
 ! D139  D(33,28,29,38)         93.0826         estimate D2E/DX2                !
 ! D140  D(35,28,29,24)         92.3505         estimate D2E/DX2                !
 ! D141  D(35,28,29,34)       -148.8637         estimate D2E/DX2                !
 ! D142  D(35,28,29,38)        -27.7341         estimate D2E/DX2                !
 ! D143  D(27,28,35,43)       -173.7211         estimate D2E/DX2                !
 ! D144  D(27,28,35,82)         69.1577         estimate D2E/DX2                !
 ! D145  D(29,28,35,43)         63.6421         estimate D2E/DX2                !
 ! D146  D(29,28,35,82)        -53.4791         estimate D2E/DX2                !
 ! D147  D(33,28,35,43)        -56.6192         estimate D2E/DX2                !
 ! D148  D(33,28,35,82)       -173.7405         estimate D2E/DX2                !
 ! D149  D(24,29,38,39)        -45.5591         estimate D2E/DX2                !
 ! D150  D(24,29,38,40)         72.9272         estimate D2E/DX2                !
 ! D151  D(24,29,38,41)       -166.0913         estimate D2E/DX2                !
 ! D152  D(28,29,38,39)         77.2154         estimate D2E/DX2                !
 ! D153  D(28,29,38,40)       -164.2983         estimate D2E/DX2                !
 ! D154  D(28,29,38,41)        -43.3168         estimate D2E/DX2                !
 ! D155  D(34,29,38,39)       -162.443          estimate D2E/DX2                !
 ! D156  D(34,29,38,40)        -43.9567         estimate D2E/DX2                !
 ! D157  D(34,29,38,41)         77.0248         estimate D2E/DX2                !
 ! D158  D(28,35,82,41)         82.8801         estimate D2E/DX2                !
 ! D159  D(28,35,82,62)         13.3794         estimate D2E/DX2                !
 ! D160  D(28,35,82,81)        -25.3579         estimate D2E/DX2                !
 ! D161  D(43,35,82,41)        -34.9724         estimate D2E/DX2                !
 ! D162  D(43,35,82,62)       -104.4731         estimate D2E/DX2                !
 ! D163  D(43,35,82,81)       -143.2104         estimate D2E/DX2                !
 ! D164  D(25,37,49,48)        122.7429         estimate D2E/DX2                !
 ! D165  D(25,37,49,50)       -117.8325         estimate D2E/DX2                !
 ! D166  D(25,37,49,55)          2.3924         estimate D2E/DX2                !
 ! D167  D(29,38,41,42)       -162.981          estimate D2E/DX2                !
 ! D168  D(29,38,41,82)        102.8354         estimate D2E/DX2                !
 ! D169  D(39,38,41,42)         77.5607         estimate D2E/DX2                !
 ! D170  D(39,38,41,82)        -16.6229         estimate D2E/DX2                !
 ! D171  D(40,38,41,42)        -43.3201         estimate D2E/DX2                !
 ! D172  D(40,38,41,82)       -137.5037         estimate D2E/DX2                !
 ! D173  D(38,41,82,35)       -102.3186         estimate D2E/DX2                !
 ! D174  D(38,41,82,62)         -8.2497         estimate D2E/DX2                !
 ! D175  D(38,41,82,81)        -19.7475         estimate D2E/DX2                !
 ! D176  D(42,41,82,35)        153.6482         estimate D2E/DX2                !
 ! D177  D(42,41,82,62)       -112.283          estimate D2E/DX2                !
 ! D178  D(42,41,82,81)       -123.7808         estimate D2E/DX2                !
 ! D179  D(50,45,46,47)        -63.8018         estimate D2E/DX2                !
 ! D180  D(50,45,46,51)         57.4631         estimate D2E/DX2                !
 ! D181  D(50,45,46,58)        179.1026         estimate D2E/DX2                !
 ! D182  D(84,45,46,47)         78.5252         estimate D2E/DX2                !
 ! D183  D(84,45,46,51)       -160.2099         estimate D2E/DX2                !
 ! D184  D(84,45,46,58)        -38.5704         estimate D2E/DX2                !
 ! D185  D(46,45,50,49)         67.278          estimate D2E/DX2                !
 ! D186  D(46,45,50,54)        -51.5955         estimate D2E/DX2                !
 ! D187  D(46,45,50,59)       -167.7376         estimate D2E/DX2                !
 ! D188  D(84,45,50,49)        -94.6164         estimate D2E/DX2                !
 ! D189  D(84,45,50,54)        146.5101         estimate D2E/DX2                !
 ! D190  D(84,45,50,59)         30.3681         estimate D2E/DX2                !
 ! D191  D(46,45,84,56)        -80.344          estimate D2E/DX2                !
 ! D192  D(46,45,84,58)         24.0903         estimate D2E/DX2                !
 ! D193  D(46,45,84,81)         35.7179         estimate D2E/DX2                !
 ! D194  D(50,45,84,56)         65.0801         estimate D2E/DX2                !
 ! D195  D(50,45,84,58)        169.5144         estimate D2E/DX2                !
 ! D196  D(50,45,84,81)       -178.8581         estimate D2E/DX2                !
 ! D197  D(45,46,47,48)         53.0062         estimate D2E/DX2                !
 ! D198  D(45,46,47,52)        -66.0011         estimate D2E/DX2                !
 ! D199  D(45,46,47,57)        172.6257         estimate D2E/DX2                !
 ! D200  D(51,46,47,48)        -66.939          estimate D2E/DX2                !
 ! D201  D(51,46,47,52)        174.0537         estimate D2E/DX2                !
 ! D202  D(51,46,47,57)         52.6805         estimate D2E/DX2                !
 ! D203  D(58,46,47,48)        170.2315         estimate D2E/DX2                !
 ! D204  D(58,46,47,52)         51.2242         estimate D2E/DX2                !
 ! D205  D(58,46,47,57)        -70.149          estimate D2E/DX2                !
 ! D206  D(45,46,58,66)        -71.6727         estimate D2E/DX2                !
 ! D207  D(45,46,58,84)         12.7499         estimate D2E/DX2                !
 ! D208  D(47,46,58,66)        170.4385         estimate D2E/DX2                !
 ! D209  D(47,46,58,84)       -105.1389         estimate D2E/DX2                !
 ! D210  D(51,46,58,66)         48.1119         estimate D2E/DX2                !
 ! D211  D(51,46,58,84)        132.5345         estimate D2E/DX2                !
 ! D212  D(46,47,48,49)        -48.3545         estimate D2E/DX2                !
 ! D213  D(46,47,48,53)         70.5197         estimate D2E/DX2                !
 ! D214  D(46,47,48,56)       -169.4165         estimate D2E/DX2                !
 ! D215  D(52,47,48,49)         69.173          estimate D2E/DX2                !
 ! D216  D(52,47,48,53)       -171.9528         estimate D2E/DX2                !
 ! D217  D(52,47,48,56)        -51.889          estimate D2E/DX2                !
 ! D218  D(57,47,48,49)       -171.7717         estimate D2E/DX2                !
 ! D219  D(57,47,48,53)        -52.8975         estimate D2E/DX2                !
 ! D220  D(57,47,48,56)         67.1662         estimate D2E/DX2                !
 ! D221  D(46,47,57,65)         69.7483         estimate D2E/DX2                !
 ! D222  D(48,47,57,65)       -167.2415         estimate D2E/DX2                !
 ! D223  D(52,47,57,65)        -49.2572         estimate D2E/DX2                !
 ! D224  D(47,48,49,37)        169.6317         estimate D2E/DX2                !
 ! D225  D(47,48,49,50)         50.4422         estimate D2E/DX2                !
 ! D226  D(47,48,49,55)        -69.5713         estimate D2E/DX2                !
 ! D227  D(53,48,49,37)         50.6658         estimate D2E/DX2                !
 ! D228  D(53,48,49,50)        -68.5236         estimate D2E/DX2                !
 ! D229  D(53,48,49,55)        171.4628         estimate D2E/DX2                !
 ! D230  D(56,48,49,37)        -68.5217         estimate D2E/DX2                !
 ! D231  D(56,48,49,50)        172.2888         estimate D2E/DX2                !
 ! D232  D(56,48,49,55)         52.2753         estimate D2E/DX2                !
 ! D233  D(47,48,56,64)        -37.7576         estimate D2E/DX2                !
 ! D234  D(47,48,56,84)         81.871          estimate D2E/DX2                !
 ! D235  D(49,48,56,64)       -160.4336         estimate D2E/DX2                !
 ! D236  D(49,48,56,84)        -40.8051         estimate D2E/DX2                !
 ! D237  D(53,48,56,64)         81.4065         estimate D2E/DX2                !
 ! D238  D(53,48,56,84)       -158.9649         estimate D2E/DX2                !
 ! D239  D(37,49,50,45)       -178.201          estimate D2E/DX2                !
 ! D240  D(37,49,50,54)        -58.277          estimate D2E/DX2                !
 ! D241  D(37,49,50,59)         61.5435         estimate D2E/DX2                !
 ! D242  D(48,49,50,45)        -58.8663         estimate D2E/DX2                !
 ! D243  D(48,49,50,54)         61.0577         estimate D2E/DX2                !
 ! D244  D(48,49,50,59)       -179.1218         estimate D2E/DX2                !
 ! D245  D(55,49,50,45)         61.1362         estimate D2E/DX2                !
 ! D246  D(55,49,50,54)       -178.9398         estimate D2E/DX2                !
 ! D247  D(55,49,50,59)        -59.1193         estimate D2E/DX2                !
 ! D248  D(45,50,59,60)         55.3807         estimate D2E/DX2                !
 ! D249  D(45,50,59,61)        173.8547         estimate D2E/DX2                !
 ! D250  D(45,50,59,62)        -63.0989         estimate D2E/DX2                !
 ! D251  D(49,50,59,60)        176.3251         estimate D2E/DX2                !
 ! D252  D(49,50,59,61)        -65.2008         estimate D2E/DX2                !
 ! D253  D(49,50,59,62)         57.8456         estimate D2E/DX2                !
 ! D254  D(54,50,59,60)        -62.9439         estimate D2E/DX2                !
 ! D255  D(54,50,59,61)         55.5302         estimate D2E/DX2                !
 ! D256  D(54,50,59,62)        178.5765         estimate D2E/DX2                !
 ! D257  D(48,56,84,45)        -16.4755         estimate D2E/DX2                !
 ! D258  D(48,56,84,58)        -49.2644         estimate D2E/DX2                !
 ! D259  D(48,56,84,81)       -111.931          estimate D2E/DX2                !
 ! D260  D(64,56,84,45)         68.0524         estimate D2E/DX2                !
 ! D261  D(64,56,84,58)         35.2635         estimate D2E/DX2                !
 ! D262  D(64,56,84,81)        -27.403          estimate D2E/DX2                !
 ! D263  D(46,58,66,67)       -102.1795         estimate D2E/DX2                !
 ! D264  D(46,58,66,68)         15.4408         estimate D2E/DX2                !
 ! D265  D(46,58,66,69)        137.4643         estimate D2E/DX2                !
 ! D266  D(84,58,66,67)       -172.3402         estimate D2E/DX2                !
 ! D267  D(84,58,66,68)        -54.7199         estimate D2E/DX2                !
 ! D268  D(84,58,66,69)         67.3036         estimate D2E/DX2                !
 ! D269  D(46,58,84,45)        -13.1874         estimate D2E/DX2                !
 ! D270  D(46,58,84,56)         39.2831         estimate D2E/DX2                !
 ! D271  D(46,58,84,81)        176.6222         estimate D2E/DX2                !
 ! D272  D(66,58,84,45)        101.7433         estimate D2E/DX2                !
 ! D273  D(66,58,84,56)        154.2138         estimate D2E/DX2                !
 ! D274  D(66,58,84,81)        -68.4471         estimate D2E/DX2                !
 ! D275  D(50,59,62,63)        -76.2921         estimate D2E/DX2                !
 ! D276  D(50,59,62,82)         85.7654         estimate D2E/DX2                !
 ! D277  D(60,59,62,63)        164.1874         estimate D2E/DX2                !
 ! D278  D(60,59,62,82)        -33.7551         estimate D2E/DX2                !
 ! D279  D(61,59,62,63)         46.5608         estimate D2E/DX2                !
 ! D280  D(61,59,62,82)       -151.3818         estimate D2E/DX2                !
 ! D281  D(59,62,82,35)       -168.3799         estimate D2E/DX2                !
 ! D282  D(59,62,82,41)        161.8512         estimate D2E/DX2                !
 ! D283  D(59,62,82,81)        -29.7921         estimate D2E/DX2                !
 ! D284  D(63,62,82,35)         -6.6461         estimate D2E/DX2                !
 ! D285  D(63,62,82,41)        -36.415          estimate D2E/DX2                !
 ! D286  D(63,62,82,81)        131.9417         estimate D2E/DX2                !
 ! D287  D(58,66,69,70)        177.5178         estimate D2E/DX2                !
 ! D288  D(58,66,69,71)         63.051          estimate D2E/DX2                !
 ! D289  D(58,66,69,72)        -58.7407         estimate D2E/DX2                !
 ! D290  D(67,66,69,70)         58.4753         estimate D2E/DX2                !
 ! D291  D(67,66,69,71)        -55.9915         estimate D2E/DX2                !
 ! D292  D(67,66,69,72)       -177.7832         estimate D2E/DX2                !
 ! D293  D(68,66,69,70)        -61.6479         estimate D2E/DX2                !
 ! D294  D(68,66,69,71)       -176.1147         estimate D2E/DX2                !
 ! D295  D(68,66,69,72)         62.0936         estimate D2E/DX2                !
 ! D296  D(66,69,72,73)         58.8754         estimate D2E/DX2                !
 ! D297  D(66,69,72,74)        173.5464         estimate D2E/DX2                !
 ! D298  D(66,69,72,75)        -64.5145         estimate D2E/DX2                !
 ! D299  D(70,69,72,73)       -179.0107         estimate D2E/DX2                !
 ! D300  D(70,69,72,74)        -64.3396         estimate D2E/DX2                !
 ! D301  D(70,69,72,75)         57.5994         estimate D2E/DX2                !
 ! D302  D(71,69,72,73)        -62.8963         estimate D2E/DX2                !
 ! D303  D(71,69,72,74)         51.7748         estimate D2E/DX2                !
 ! D304  D(71,69,72,75)        173.7138         estimate D2E/DX2                !
 ! D305  D(69,72,75,76)        -57.0169         estimate D2E/DX2                !
 ! D306  D(69,72,75,77)         60.1503         estimate D2E/DX2                !
 ! D307  D(69,72,75,78)       -176.8141         estimate D2E/DX2                !
 ! D308  D(73,72,75,76)       -179.0009         estimate D2E/DX2                !
 ! D309  D(73,72,75,77)        -61.8337         estimate D2E/DX2                !
 ! D310  D(73,72,75,78)         61.202          estimate D2E/DX2                !
 ! D311  D(74,72,75,76)         64.4017         estimate D2E/DX2                !
 ! D312  D(74,72,75,77)       -178.4311         estimate D2E/DX2                !
 ! D313  D(74,72,75,78)        -55.3954         estimate D2E/DX2                !
 ! D314  D(72,75,78,79)        175.2453         estimate D2E/DX2                !
 ! D315  D(72,75,78,80)         54.9508         estimate D2E/DX2                !
 ! D316  D(72,75,78,81)        -65.2058         estimate D2E/DX2                !
 ! D317  D(76,75,78,79)         53.601          estimate D2E/DX2                !
 ! D318  D(76,75,78,80)        -66.6934         estimate D2E/DX2                !
 ! D319  D(76,75,78,81)        173.15           estimate D2E/DX2                !
 ! D320  D(77,75,78,79)        -61.0483         estimate D2E/DX2                !
 ! D321  D(77,75,78,80)        178.6573         estimate D2E/DX2                !
 ! D322  D(77,75,78,81)         58.5007         estimate D2E/DX2                !
 ! D323  D(75,78,81,82)       -179.687          estimate D2E/DX2                !
 ! D324  D(75,78,81,83)         62.1691         estimate D2E/DX2                !
 ! D325  D(75,78,81,84)        -61.1674         estimate D2E/DX2                !
 ! D326  D(79,78,81,82)        -57.8589         estimate D2E/DX2                !
 ! D327  D(79,78,81,83)       -176.0027         estimate D2E/DX2                !
 ! D328  D(79,78,81,84)         60.6608         estimate D2E/DX2                !
 ! D329  D(80,78,81,82)         57.7448         estimate D2E/DX2                !
 ! D330  D(80,78,81,83)        -60.399          estimate D2E/DX2                !
 ! D331  D(80,78,81,84)        176.2645         estimate D2E/DX2                !
 ! D332  D(78,81,82,35)        156.5036         estimate D2E/DX2                !
 ! D333  D(78,81,82,41)        129.4271         estimate D2E/DX2                !
 ! D334  D(78,81,82,62)        118.9133         estimate D2E/DX2                !
 ! D335  D(83,81,82,35)        -80.812          estimate D2E/DX2                !
 ! D336  D(83,81,82,41)       -107.8885         estimate D2E/DX2                !
 ! D337  D(83,81,82,62)       -118.4022         estimate D2E/DX2                !
 ! D338  D(84,81,82,35)         33.6817         estimate D2E/DX2                !
 ! D339  D(84,81,82,41)          6.6052         estimate D2E/DX2                !
 ! D340  D(84,81,82,62)         -3.9086         estimate D2E/DX2                !
 ! D341  D(78,81,83,14)        171.2743         estimate D2E/DX2                !
 ! D342  D(78,81,83,19)       -122.582          estimate D2E/DX2                !
 ! D343  D(82,81,83,14)         48.6635         estimate D2E/DX2                !
 ! D344  D(82,81,83,19)        114.8072         estimate D2E/DX2                !
 ! D345  D(84,81,83,14)        -63.2665         estimate D2E/DX2                !
 ! D346  D(84,81,83,19)          2.8772         estimate D2E/DX2                !
 ! D347  D(78,81,84,45)         69.2056         estimate D2E/DX2                !
 ! D348  D(78,81,84,56)        119.4417         estimate D2E/DX2                !
 ! D349  D(78,81,84,58)         74.3599         estimate D2E/DX2                !
 ! D350  D(82,81,84,45)       -168.0038         estimate D2E/DX2                !
 ! D351  D(82,81,84,56)       -117.7676         estimate D2E/DX2                !
 ! D352  D(82,81,84,58)       -162.8494         estimate D2E/DX2                !
 ! D353  D(83,81,84,45)        -56.2915         estimate D2E/DX2                !
 ! D354  D(83,81,84,56)         -6.0553         estimate D2E/DX2                !
 ! D355  D(83,81,84,58)        -51.1371         estimate D2E/DX2                !
 --------------------------------------------------------------------------------
 Trust Radius=3.00D-01 FncErr=1.00D-07 GrdErr=1.00D-06
 Number of steps in this run=    504 maximum allowed number of steps=    504.
 GradGradGradGradGradGradGradGradGradGradGradGradGradGradGradGradGradGrad

 Leave Link  103 at Sun May  1 23:33:35 2016, MaxMem= 10737418240 cpu:         0.5
 (Enter /share/apps//g09/l202.exe)
 Stoichiometry    C23H44NO16(1+)
 Framework group  C1[X(C23H44NO16)]
 Deg. of freedom   246
 Full point group                 C1      NOp   1
 Largest Abelian subgroup         C1      NOp   1
 Largest concise Abelian subgroup C1      NOp   1
                         Standard orientation:                         
 ---------------------------------------------------------------------
 Center     Atomic      Atomic             Coordinates (Angstroms)
 Number     Number       Type             X           Y           Z
 ---------------------------------------------------------------------
      1          8           0        1.247156    2.604101    1.967598
      2          6           0        1.633796    1.235622    1.980526
      3          6           0        0.567269    0.345469    2.648623
      4          6           0       -0.808919    0.603599    2.015945
      5          6           0       -1.123286    2.104204    1.943876
      6          6           0        0.022854    2.813208    1.223861
      7          1           0        2.573021    1.212888    2.551767
      8          1           0        0.525859    0.639305    3.714488
      9          1           0       -0.821372    0.180874    0.998882
     10          1           0       -2.059798    2.250450    1.384015
     11          1           0        0.134963    2.383625    0.215531
     12          8           0       -1.381018    2.611565    3.263208
     13          8           0       -1.850439   -0.082846    2.734090
     14          8           0        0.903295   -1.040923    2.563359
     15          8           0        1.827407    0.709031    0.675186
     16          6           0       -0.167927    4.312815    1.036340
     17          1           0       -0.484204    4.794428    1.976231
     18          1           0        0.796323    4.746697    0.722180
     19          8           0       -1.168266    4.456526    0.015405
     20          1           0       -1.502816    5.367606    0.045471
     21          1           0       -0.519530    2.839186    3.664487
     22          1           0       -2.076167    0.480173    3.502805
     23          1           0        1.838412   -1.092965    2.251289
     24          8           0        2.596985   -1.345199   -1.319373
     25          6           0        2.537132   -0.169025   -2.167946
     26          6           0        2.978119    1.115822   -1.382875
     27          6           0        3.141367    0.876114    0.127514
     28          6           0        4.022554   -0.367255    0.435205
     29          6           0        3.888029   -1.422985   -0.685217
     30          1           0        3.264037   -0.310456   -2.987511
     31          1           0        2.208676    1.888208   -1.524959
     32          1           0        3.606786    1.777426    0.553745
     33          1           0        5.073268   -0.039849    0.472892
     34          1           0        4.665694   -1.209735   -1.441412
     35          8           0        3.639042   -0.869746    1.729146
     36          8           0        4.258769    1.554746   -1.854204
     37          8           0        1.297191   -0.129481   -2.807877
     38          6           0        4.042497   -2.866598   -0.203708
     39          1           0        3.110668   -3.188033    0.295491
     40          1           0        4.215714   -3.523301   -1.069632
     41          8           0        5.153495   -2.895851    0.708303
     42          1           0        5.447908   -3.814351    0.821767
     43          1           0        4.283035   -1.582793    1.926481
     44          1           0        4.123214    2.132211   -2.624076
     45          8           0       -1.981565   -1.036440   -1.411383
     46          6           0       -2.805742    0.022483   -1.940214
     47          6           0       -2.049445    1.347521   -1.832465
     48          6           0       -0.657176    1.269569   -2.469929
     49          6           0        0.107397    0.026962   -2.003238
     50          6           0       -0.785478   -1.219504   -2.179607
     51          1           0       -3.053306   -0.209903   -2.998889
     52          1           0       -1.938700    1.557520   -0.754162
     53          1           0       -0.781427    1.205162   -3.569475
     54          1           0       -1.032616   -1.328583   -3.256182
     55          1           0        0.377387    0.138673   -0.942523
     56          8           0        0.103431    2.431441   -2.137276
     57          8           0       -2.723366    2.420272   -2.484639
     58          8           0       -3.945418    0.116431   -1.152445
     59          6           0       -0.157059   -2.532510   -1.733312
     60          1           0       -0.901568   -3.333256   -1.842852
     61          1           0        0.704457   -2.765036   -2.375041
     62          8           0        0.247553   -2.526166   -0.353914
     63          1           0        1.079021   -1.999633   -0.323167
     64          1           0       -0.511097    3.191726   -2.146191
     65          1           0       -3.523416    2.625758   -1.969256
     66          6           0       -4.883965   -0.979223   -1.317307
     67          1           0       -5.713787   -0.629865   -1.952974
     68          1           0       -4.382468   -1.812206   -1.833363
     69          6           0       -5.406669   -1.410615    0.048310
     70          1           0       -6.147973   -2.210789   -0.116866
     71          1           0       -5.958433   -0.568032    0.493330
     72          6           0       -4.329074   -1.869010    1.043441
     73          1           0       -3.626777   -1.034613    1.188257
     74          1           0       -4.812804   -2.041044    2.019636
     75          6           0       -3.574481   -3.138885    0.624867
     76          1           0       -4.288748   -3.963365    0.465172
     77          1           0       -3.061966   -2.975141   -0.335272
     78          6           0       -2.556960   -3.638221    1.648483
     79          1           0       -2.114878   -4.591086    1.327999
     80          1           0       -3.022274   -3.793123    2.632723
     81          7           0       -1.421815   -2.672621    1.842321
     82          1           0       -0.732689   -3.007777    2.526586
     83          1           0       -1.739714   -1.746025    2.215302
     84          1           0       -0.870232   -2.509649    0.952529
 ---------------------------------------------------------------------
 Rotational constants (GHZ):      0.1149622      0.0811625      0.0738618
 Leave Link  202 at Sun May  1 23:33:36 2016, MaxMem= 10737418240 cpu:         4.4
 (Enter /share/apps//g09/l301.exe)
 Standard basis: 6-311+G(d,p) (5D, 7F)
 Ernie: Thresh=  0.10000D-02 Tol=  0.10000D-05 Strict=F.
 There are  1184 symmetry adapted cartesian basis functions of A   symmetry.
 There are  1144 symmetry adapted basis functions of A   symmetry.
  1144 basis functions,  1792 primitive gaussians,  1184 cartesian basis functions
[...]
 0201,-0.00002916,0.00001975,0.00000460,-0.00001480,0.00001349,-0.00001
 073,-0.00001458,0.00001526,0.00001304,-0.00004046,0.00001836,0.0000017
 2,-0.00001031,0.00020501,-0.00003199,-0.00028316,-0.00002072,-0.000048
 36,-0.00004245,-0.00011676,-0.00003331,-0.00010084,-0.00012135,0.00002
 954,0.00006933,0.00001997,0.00000279,-0.00003146,0.00000238,-0.0000024
 0,-0.00001220,0.00009351,-0.00004689,-0.00002914,-0.00003923,0.0000037
 2,0.00000861,-0.00002387,0.00003014,0.00001444,0.00000593,0.00001621,0
 .00002176,-0.00064283,0.00003512,-0.00050591,0.00091610,0.00019657,0.0
 0015094,0.00000990,0.00020335,-0.00003817,0.00011543,0.00007884,0.0000
 9675,-0.00000206,0.00005882,0.00005553,0.00014063,0.00001129,0.0000813
 6,-0.00008149,-0.00004471,-0.00005840,0.00001175,-0.00004067,-0.000008
 75,-0.00002860,-0.00002555,-0.00000261,-0.00002629,0.00001327,-0.00004
 359,0.00003702,0.00004776,0.00007060,-0.00012700,-0.00017380,-0.000058
 44,-0.00009176,-0.00011976,-0.00004511,-0.00043724,-0.00025944,0.00028
 321,0.00017076,-0.00064694,0.00046856,-0.00001085,-0.00000186,-0.00002
 129,-0.00000143,0.00013634,-0.00008179,0.00072259,0.00070639,-0.000361
 71,-0.00028280,0.00007836,0.00029268,0.00005058,0.00007366,-0.00003430
 ,0.00000721,0.00005989,-0.00003249,0.00028240,0.00008642,-0.00006571,-
 0.00006353,-0.00005729,0.00007359,-0.00005870,-0.00009289,0.00002344,-
 0.00030295,-0.00054365,-0.00093384,0.00028442,-0.00031918,0.00019393,-
 0.00010388,0.00008580,-0.00006473,0.00022285,0.00083132,0.00162229,-0.
 00139729,0.00082463,-0.00211043,-0.00040726,0.00005728,0.00024948,0.00
 095225,0.00019460,0.00059638,-0.00040394,-0.00018433,-0.00036364,-0.00
 018492,-0.00020837,-0.00007560,0.02081390,0.01002885,0.00991648,-0.002
 82648,0.00398662,0.00374701,0.00023312,-0.00008696,0.00050739,-0.18498
 519,-0.10399334,-0.09966562,-0.01488615,-0.01183591,-0.01031742,0.1962
 1801,-0.00056353,-0.00016898,0.00008295,0.00046690,0.00092672,-0.00097
 221,0.00067937,-0.00016682,0.00102497,0.00717826,0.00242041,-0.0067263
 7,-0.00171818,0.00001219,0.00099477,0.00111886,0.00045138,0.00028009,-
 0.00019331,-0.00003653,0.00026189,0.00009155,-0.00035139,-0.00003426,-
 0.00074430,-0.00023166,0.00083731,0.00002633,0.00000738,-0.00020051,-0
 .00000843,0.00013154,-0.00002854,-0.00020677,0.00018687,0.00101114,0.0
 0043468,0.00163775,0.00329441,-0.00174832,-0.00150138,-0.00103077,-0.0
 0101801,-0.00082541,0.00043649,-0.00056057,0.00021719,-0.00010128,0.00
 002234,-0.00006407,-0.00005890,0.00003714,0.00001687,0.00021695,0.0001
 1821,-0.00029961,0.00030805,-0.00003768,0.00003560,-0.00008112,0.00004
 751,-0.00025671,-0.00013566,-0.00126779,-0.00209538,0.00297570,0.00052
 511,0.00043659,0.00027893,0.00021696,-0.00028042,-0.00031235,-0.000116
 24,0.00031415,0.00023093,-0.00001241,0.00012162,-0.00004587,0.00063083
 ,0.00000583,-0.00013613,0.00001779,0.00017750,-0.00004582,-0.00007447,
 0.00024017,-0.00002310,0.00000793,-0.00002494,-0.00003552,-0.00000462,
 0.00002984,-0.00002573,-0.00002471,-0.00002236,-0.00001222,-0.00003679
 ,-0.00003235,-0.00000680,0.00002199,-0.00004231,-0.00001653,-0.0003534
 5,-0.00024169,-0.00001615,-0.00008683,-0.00017418,0.00004687,0.0002515
 1,-0.00031132,-0.00020709,-0.00017876,0.00007483,0.00009999,0.00003726
 ,0.00004538,-0.00002474,-0.00002465,-0.00002373,-0.00002300,0.00005631
 ,-0.00016512,-0.00005184,-0.00002461,0.00000129,0.00002156,0.00005295,
 0.00009984,0.00013539,0.00000450,0.00003742,0.00001615,0.00004469,0.00
 012354,-0.00103387,0.00024271,-0.00002086,0.00083394,0.00006669,0.0004
 8714,-0.00001603,0.00000563,0.00023710,0.00025209,-0.00019203,0.000280
 93,0.00010830,-0.00049173,0.00005111,0.00024100,-0.00001687,0.00001209
 ,-0.00013589,-0.00003111,-0.00004548,0.00002467,-0.00002146,-0.0000773
 7,0.00001554,0.00003788,0.00002069,-0.00010951,0.00006809,0.00013975,0
 .00004778,-0.00002928,-0.00054181,-0.00020466,0.00000572,-0.00035187,-
 0.00022268,0.00017082,-0.00014556,-0.00068454,0.00018682,-0.00069829,0
 .00032377,-0.00004904,-0.00006298,-0.00006134,0.00003243,0.00016334,-0
 .00006224,0.00113729,0.00074330,-0.00093472,-0.00029047,0.00051685,0.0
 0042270,0.00004421,0.00019864,-0.00003245,-0.00002393,0.00019528,0.000
 09334,-0.00017251,0.00011482,0.00043700,-0.00000127,0.00000965,-0.0001
 3687,-0.00000127,-0.00014200,0.00004092,-0.00013514,-0.00006259,0.0005
 8255,-0.00009060,0.00016658,-0.00014406,-0.00020474,0.00010017,-0.0001
 5795,0.00054182,-0.00009452,-0.00088422,0.00102780,0.00100679,0.001251
 88,-0.00024372,0.00008510,0.00030839,-0.00047220,-0.00120568,0.0003009
 0,-0.00037685,0.00048472,-0.00005317,0.00007014,-0.00035196,0.00003773
 ,-0.00794436,-0.01171626,-0.01079460,0.00140962,-0.00016379,-0.0008997
 6,-0.00036004,0.00118854,0.00097686,-0.10949880,-0.15217351,-0.0884006
 4,0.01733202,0.01714747,0.01497174,0.10624023,0.15384230,-0.00061275,-
 0.00005555,-0.00009203,0.00036225,0.00072057,-0.00065927,0.00126838,0.
 00000887,0.00174790,0.00459066,-0.00190304,-0.00727663,-0.00083071,0.0
 0019471,-0.00025462,0.00086878,0.00010922,0.00008287,-0.00018087,-0.00
 000599,0.00025133,-0.00008888,-0.00011990,-0.00007415,0.00023532,0.000
 13688,-0.00074015,-0.00002902,-0.00001516,-0.00014788,0.00001913,0.000
 12620,-0.00005790,-0.00003692,0.00075801,0.00121465,0.00309450,0.00482
 502,-0.00606610,-0.00086681,-0.00100970,-0.00189869,-0.00092849,-0.000
 62454,0.00025753,-0.00036696,0.00015863,-0.00011309,0.00002650,-0.0000
 4408,-0.00004846,0.00001245,0.00001156,0.00016980,0.00005886,-0.000190
 37,0.00026179,-0.00003077,0.00002785,-0.00007867,0.00011303,-0.0002451
 5,-0.00005856,-0.00195371,-0.00057587,0.00468227,0.00022001,0.00023073
 ,-0.00009859,0.00016251,-0.00016254,-0.00048475,0.00015634,0.00009064,
 0.00038313,0.00000886,0.00009371,-0.00006580,0.00057114,0.00003227,-0.
 00008965,0.00000320,0.00009429,0.00006053,-0.00001857,0.00017595,-0.00
 003189,-0.00001518,-0.00000780,-0.00004888,0.00001202,0.00001026,-0.00
 003404,-0.00002955,-0.00001364,-0.00000781,-0.00002414,-0.00001773,-0.
 00002368,0.00002641,-0.00003004,-0.00001225,-0.00019206,-0.00015557,-0
 .00015496,-0.00011164,-0.00012939,0.00004449,-0.00016032,-0.00020551,-
 0.00010119,-0.00016064,0.00005026,0.00012196,0.00003145,0.00004221,-0.
 00003648,-0.00001610,-0.00001652,-0.00002296,0.00005225,-0.00011646,-0
 .00007492,-0.00002944,-0.00000375,0.00002514,0.00003594,0.00006191,0.0
 0011354,0.00001483,0.00002964,0.00000973,-0.00044056,-0.00053338,-0.00
 045362,0.00011585,0.00023342,0.00023200,0.00002684,0.00051741,-0.00017
 987,0.00011183,0.00011876,0.00010125,-0.00004179,0.00032053,-0.0000006
 1,0.00039453,0.00024964,0.00011662,0.00000328,-0.00008671,-0.00002295,
 -0.00003673,-0.00013750,-0.00001832,-0.00003639,-0.00006477,0.00002630
 ,-0.00011450,-0.00005698,-0.00005762,0.00009984,0.00006192,0.00005245,
 -0.00012200,-0.00035725,-0.00005911,0.00005236,-0.00030653,0.00002962,
 0.00017628,-0.00042677,-0.00029557,0.00057367,-0.00105078,0.00044723,-
 0.00005911,-0.00005453,-0.00001568,-0.00001652,0.00029582,-0.00015281,
 0.00231214,0.00133504,-0.00312132,-0.00002915,0.00075822,0.00025074,0.
 00004988,0.00013925,-0.00007453,-0.00005524,0.00014118,0.00001022,-0.0
 0025262,0.00037865,0.00036487,0.00002490,-0.00002945,-0.00009107,-0.00
 002885,-0.00011436,0.00000744,0.00017398,-0.00022317,-0.00035964,0.000
 11316,-0.00010336,0.00002116,-0.00014273,0.00007026,-0.00008076,-0.000
 06366,0.00064180,0.00099327,-0.00120922,0.00077130,-0.00005461,0.00036
 483,-0.00010544,-0.00025005,0.00028234,0.00052566,0.00160578,-0.000480
 86,0.00031495,-0.00040530,-0.00004375,0.00002118,0.00004016,-0.0089999
 6,-0.01300044,-0.01273312,0.00189097,-0.00079394,-0.00080482,-0.000598
 38,0.00063436,-0.00020018,-0.09810575,-0.08245680,-0.14202077,-0.01396
 067,-0.00970719,-0.01004070,0.10153089,0.08899904,0.15509542,-0.000588
 30,-0.00021536,-0.00012619,0.00084318,0.00099213,-0.00027613,0.0004958
 0,0.00003428,0.00045897,0.00133088,-0.00035956,-0.00135731,-0.00022050
 ,0.00010302,-0.00019893,0.00045839,0.00004331,-0.00000652,-0.00007163,
 -0.00005284,0.00009135,-0.00014962,-0.00014010,-0.00012915,0.00041295,
 0.00003116,-0.00045834,-0.00001413,-0.00000537,-0.00007847,0.00004387,
 0.00007640,-0.00000635,-0.00009941,0.00015762,0.00043918,0.00003553,0.
 00126179,0.00167076,-0.00193113,-0.00126127,0.00018605,-0.00075539,-0.
 00096734,0.00007486,-0.00007728,0.00005915,0.00000154,-0.00000929,-0.0
 0003199,-0.00002723,0.00000249,0.00002117,0.00007589,-0.00010668,-0.00
 008370,0.00006398,0.00003425,0.00001221,-0.00002839,0.00009443,-0.0000
 2313,-0.00007272,-0.00020383,-0.00015384,0.00018246,0.00027076,0.00123
 801,0.00010647,0.00143943,-0.00046055,-0.00188067,0.00034588,-0.000036
 28,0.00143283,-0.00016108,0.00021782,0.00010380,0.00030852,0.00006005,
 0.00003597,0.00002279,0.00029663,-0.00001959,-0.00071397,0.00077708,-0
 .00024600,0.00001595,0.00004238,-0.00022370,0.00003992,-0.00004213,-0.
 00002859,-0.00000969,-0.00005713,-0.00002726,-0.00001619,-0.00009662,-
 0.00001498,0.00019445,-0.00013233,-0.00004608,-0.00017010,-0.00054769,
 0.00008160,0.00011310,-0.00024084,-0.00024999,-0.00042242,-0.00015865,
 -0.00041971,-0.00077506,0.00031581,0.00019271,0.00004401,0.00015637,-0
 .00026694,0.00000440,-0.00003088,-0.00006719,0.00059740,-0.00053867,0.
 00016176,-0.00010889,0.00002501,-0.00008646,-0.00000333,0.00021670,-0.
 00001555,-0.00002095,0.00005367,0.00011715,-0.00274611,-0.00087691,0.0
 0062624,0.00128513,0.00015465,0.00000479,0.00028587,0.00018176,-0.0001
 0270,0.00055138,0.00020522,0.00023793,-0.00025587,0.00015569,0.0003087
 4,0.00272976,0.00152135,-0.00021950,-0.00000825,-0.00015141,0.00006206
 ,-0.00001742,-0.00008075,-0.00001891,-0.00008034,-0.00005795,-0.000035
 58,-0.00076523,-0.00008921,-0.00037824,0.00012363,0.00025279,0.0002923
 5,-0.00043164,-0.00034565,-0.00029468,-0.00035635,-0.00005963,0.000012
 27,-0.00118298,-0.00017392,0.00092821,0.00671813,-0.00874946,0.0017158
 5,-0.00030789,0.00081200,0.00005899,-0.00023506,0.00262444,-0.00133296
 ,-0.00262135,0.00675472,-0.00499782,-0.00204620,0.00394109,0.00141656,
 0.00014896,0.00008568,-0.00005074,0.00003536,0.00001866,-0.00008986,0.
 00037887,-0.00021947,-0.00058345,-0.00001372,-0.00000097,0.00017131,0.
 00001531,0.00010891,-0.00007906,-0.00003227,0.00022396,-0.00020830,0.0
 0001084,-0.00012311,0.00007699,0.00012403,-0.00009160,0.00013952,-0.00
 042309,-0.00016596,0.00015482,-0.00015473,-0.00018073,-0.00040136,0.00
 012323,-0.00005821,-0.00002586,-0.00052985,-0.00061862,-0.00063184,0.0
 0076753,-0.00027657,-0.00001994,-0.00003094,0.00105976,-0.00033591,-0.
 00892286,-0.00084140,0.00983335,0.00098089,-0.00067056,-0.00126909,0.0
 0069899,0.00047190,-0.00010378,-0.15218129,-0.08218907,0.10056303,0.01
 707873,0.01223464,-0.01645786,-0.01260453,-0.01105706,0.01127956,0.153
 37182,-0.00020613,-0.00017738,0.00051288,0.00084373,0.00065513,-0.0006
 7507,-0.00110060,-0.00082725,-0.00117633,0.00025468,-0.00044493,-0.000
 43814,-0.00006727,-0.00001770,-0.00042155,0.00013035,0.00020772,-0.000
 12827,-0.00002923,-0.00006486,0.00004971,0.00010661,0.00019816,0.00019
 076,0.00000436,0.00030453,-0.00048021,0.00008266,0.00003206,0.00003823
 ,0.00001804,0.00007846,-0.00002195,0.00008992,0.00020210,0.00041015,0.
 00040812,0.00061257,0.00044837,-0.00107574,0.00230132,0.00137534,-0.00
 073159,-0.00073482,0.00049125,-0.00012832,0.00008958,-0.00009340,0.000
 00269,-0.00003342,-0.00001673,0.00001095,0.00000708,0.00005351,0.00002
 046,-0.00016232,0.00013917,0.00000830,0.00001370,-0.00002650,0.0000092
 5,-0.00006288,-0.00011099,-0.00016070,-0.00009610,0.00014880,0.0011652
 2,0.00029189,-0.00020992,0.00124014,-0.00056462,-0.00129638,0.00002145
 ,0.00024960,0.00078778,-0.00009972,0.00021549,0.00003250,0.00046591,0.
 00008034,-0.00011730,0.00008450,0.00037044,-0.00028620,-0.00058333,0.0
 0067797,-0.00023239,0.00003136,0.00000637,-0.00014607,-0.00000004,-0.0
 0001515,-0.00001601,-0.00004629,-0.00004284,-0.00000249,-0.00005447,-0
 .00010573,0.00003256,0.00014920,-0.00012498,-0.00001048,-0.00051560,-0
 .00039990,0.00041893,0.00005588,-0.00023935,-0.00010280,0.00014578,-0.
 00033327,-0.00035730,-0.00037019,0.00019127,0.00003243,0.00002798,0.00
 014650,-0.00013736,-0.00005078,-0.00003517,-0.00002251,0.00027895,-0.0
 0038871,0.00013060,-0.00002757,0.00002057,-0.00005481,0.00008945,0.000
 14194,0.00002819,-0.00002017,0.00004419,0.00006906,-0.00184020,-0.0001
 7096,-0.00129892,0.00194497,0.00024267,0.00052574,0.00007888,0.0003614
 9,0.00001707,0.00026807,0.00021703,0.00031045,-0.00036544,0.00033206,0
 .00024998,0.00055101,0.00031388,0.00066158,-0.00012892,-0.00002908,-0.
 00016832,-0.00003346,-0.00006769,-0.00001483,-0.00004251,-0.00005918,-
 0.00000286,-0.00023909,0.00004204,-0.00030071,0.00008620,0.00023194,0.
 00010922,-0.00018983,-0.00044854,-0.00032821,-0.00024468,-0.00021154,-
 0.00026478,-0.00095318,-0.00014836,0.00046546,-0.00025015,-0.00560836,
 0.00259646,-0.00028634,-0.00006494,-0.00014765,0.00013663,0.00083399,-
 0.00052802,0.00597975,-0.00827123,-0.00443850,0.00134093,0.00594687,0.
 00028882,0.00008652,0.00011709,-0.00001982,0.00004076,0.00008165,0.000
 00572,0.00040371,-0.00014006,-0.00030719,-0.00005970,-0.00000513,0.000
 06630,-0.00001306,-0.00002329,-0.00003650,0.00000834,0.00008992,-0.000
 05657,0.00000687,-0.00005928,0.00004557,0.00003212,-0.00005098,0.00005
 704,-0.00010731,-0.00029517,0.00054461,-0.00009820,0.00007449,-0.00018
 439,-0.00030434,-0.00013682,-0.00006212,0.00006541,0.00199452,-0.00145
 640,-0.00020989,-0.00028854,0.00033976,0.00006393,-0.00104576,0.001037
 90,0.01446148,0.01950511,-0.01495506,-0.00022155,0.00016310,-0.0003941
 0,0.00321365,-0.00425568,-0.00414235,-0.07698001,-0.13285824,0.0844828
 0,-0.01372082,-0.01260905,0.01368862,-0.00867427,-0.00977336,0.0107399
 0,0.07571551,0.14380577,0.00028890,0.00022364,-0.00005459,-0.00057146,
 -0.00077192,0.00024131,0.00057599,-0.00028238,-0.00009133,-0.00186169,
 -0.00143024,0.00182708,0.00016902,-0.00005381,-0.00044031,-0.00023735,
 -0.00018143,-0.00003090,0.00003185,0.00006864,-0.00002793,-0.00007897,
 0.00015295,-0.00003269,-0.00022031,-0.00010135,-0.00087537,-0.00001783
 ,-0.00000036,0.00005959,-0.00000284,-0.00004451,-0.00002886,0.00024638
 ,0.00031579,-0.00018409,0.00000525,-0.00136967,-0.00335887,0.00023483,
 0.00055780,-0.00140674,0.00026620,0.00072898,-0.00006383,0.00007282,-0
 .00005511,-0.00001403,0.00001383,0.00003376,0.00002174,-0.00001028,-0.
 00001339,-0.00004164,0.00005878,0.00010420,-0.00002836,-0.00003161,-0.
 00000772,0.00000556,-0.00002291,-0.00000537,0.00005898,0.00014488,0.00
 008056,-0.00023115,-0.00015831,-0.00053699,0.00019740,-0.00107687,0.00
 042116,0.00097829,0.00017357,-0.00024811,-0.00065727,0.00014806,-0.000
 15059,-0.00013105,-0.00001985,-0.00000067,-0.00000602,-0.00004623,-0.0
 0023005,0.00014322,0.00065922,-0.00059017,0.00019597,-0.00005472,-0.00
 000971,0.00012582,-0.00001062,0.00001206,-0.00000504,-0.00002408,0.000
 04290,0.00001879,0.00001630,0.00007494,-0.00001324,-0.00014131,0.00009
 476,0.00000878,0.00011958,0.00036158,-0.00028973,-0.00015383,0.0001775
 4,0.00019020,-0.00033111,0.00018481,0.00045811,0.00034033,-0.00017515,
 0.00001385,-0.00000656,-0.00009895,0.00017324,0.00001889,0.00001734,0.
 00002510,-0.00034362,0.00032495,-0.00020243,0.00002601,-0.00001850,0.0
 0008559,-0.00001432,-0.00011237,0.00008266,0.00002979,-0.00003548,-0.0
 0008719,0.00215744,-0.00044977,0.00114209,-0.00255044,-0.00034056,-0.0
 0061734,-0.00015395,-0.00012408,-0.00015429,-0.00029725,-0.00027686,-0
 .00036425,0.00036391,0.00012980,-0.00045538,-0.00012482,0.00020086,-0.
 00074022,0.00022693,-0.00001832,0.00025049,-0.00000961,-0.00000483,0.0
 0001422,0.00006323,0.00002840,0.00004537,0.00020477,-0.00014448,0.0003
 3836,-0.00001411,-0.00035049,-0.00030957,0.00019976,0.00035481,0.00036
 091,0.00037918,0.00007687,0.00032985,0.00138797,-0.00000003,-0.0008673
 2,-0.00273685,0.00613950,-0.00241565,0.00022151,-0.00073271,0.00020611
 ,0.00002082,-0.00168504,0.00080548,-0.00518896,-0.00449188,-0.00043542
 ,0.00168699,-0.00239181,-0.00194738,-0.00009450,-0.00008252,-0.0000162
 2,-0.00008582,-0.00003338,0.00001980,-0.00056365,0.00040947,0.00066259
 ,0.00006813,-0.00002568,-0.00014400,-0.00001235,-0.00005314,0.00005580
 ,0.00003196,-0.00024626,0.00008642,0.00003316,0.00007379,-0.00006641,-
 0.00010481,0.00009319,-0.00012303,0.00008837,0.00049414,-0.00021057,0.
 00008339,-0.00014130,0.00026346,0.00013093,-0.00002788,-0.00014514,-0.
 00077899,-0.00014136,0.00221063,-0.00059220,0.00042572,-0.00036306,0.0
 0021108,-0.00010314,0.00016851,0.01212309,0.00455761,-0.01430299,-0.00
 055359,0.00075100,-0.00014494,0.00024194,-0.00177674,-0.00029175,0.095
 08468,0.08490727,-0.16746545,0.00992060,0.01098324,-0.01147404,-0.0099
 0771,-0.00750301,0.02152586,-0.09936401,-0.08593475,0.17795983\\0.0000
 0786,-0.00000133,0.00000233,-0.00001585,-0.00001643,0.00000524,0.00001
 615,0.00000048,0.00001755,-0.00000880,-0.00000151,-0.00000520,-0.00000
 393,-0.00001071,0.00001774,0.00000906,0.00000292,-0.00000206,-0.000001
 55,0.00000254,0.00000336,0.00000138,-0.00000077,0.00000356,-0.00000133
 ,-0.00000080,-0.00000360,0.00000478,-0.00000050,-0.00000409,-0.0000035
 8,0.00000089,0.00000538,-0.00000460,0.00000781,-0.00000102,0.00001485,
 0.00002401,0.00002468,-0.00001567,0.00003161,0.00000867,0.00001592,0.0
 0002304,-0.00000143,-0.00001726,0.00002072,-0.00000250,0.00000520,-0.0
 0001213,0.00000486,0.00000480,-0.00001186,0.00000350,0.00001818,-0.000
 01060,0.00000216,-0.00000075,-0.00001227,0.00000360,0.00000820,-0.0000
 0203,0.00000548,-0.00000172,0.00000075,-0.00000128,0.00001233,-0.00001
 766,-0.00000674,0.00001453,-0.00000716,0.00000853,-0.00001351,0.000005
 33,-0.00000901,0.00000508,-0.00001521,0.00000299,-0.00001846,0.0000013
 2,-0.00000264,0.00001135,-0.00001449,0.00000626,-0.00001968,0.00003475
 ,-0.00000803,0.00000164,-0.00000364,-0.00000076,0.00000197,0.00000043,
 0.00000438,0.00000812,0.00000152,0.00000279,-0.00000121,0.00000114,0.0
 0000620,0.00000146,0.00000017,0.00000525,0.00000207,0.00000589,0.00000
 946,0.00000100,-0.00001056,0.00000508,-0.00000465,-0.00000691,0.000015
 28,0.00001298,-0.00003335,0.00000675,-0.00000409,0.00000819,0.00000227
 ,-0.00000677,0.00001153,0.00000204,-0.00000491,0.00001097,-0.00000784,
 -0.00000419,0.00000996,0.00000567,0.00000843,0.00000237,0.00000670,0.0
 0000091,0.00000417,0.00000134,0.00001690,-0.00000146,0.00000058,-0.000
 00055,0.00001524,-0.00000198,-0.00002307,-0.00001474,-0.00001858,0.000
 01754,-0.00002666,-0.00001668,0.00003236,-0.00000980,-0.00001891,-0.00
 003721,0.00001433,0.00000655,0.00000012,-0.00000454,-0.00000774,-0.000
 00398,-0.00000348,0.00000373,-0.00000629,0.00000235,-0.00000202,-0.000
 00176,-0.00000460,-0.00000602,-0.00000253,-0.00000157,0.00000644,-0.00
 000996,-0.00000203,0.00001793,0.00001334,0.00000576,0.00001302,-0.0000
 0838,-0.00000187,0.00000930,0.00000400,-0.00001198,-0.00000676,0.00000
 583,0.00000234,0.00000004,-0.00000219,0.00000192,-0.00000908,-0.000012
 42,0.00003474,-0.00000284,0.00000044,-0.00001013,0.00000746,0.00000029
 ,-0.00000060,-0.00000694,0.00000128,-0.00001536,-0.00000898,0.00000978
 ,-0.00001058,-0.00002178,-0.00000010,0.00000292,-0.00000707,-0.0000029
 3,0.00000189,-0.00000307,-0.00000960,-0.00000158,0.00000392,0.00000011
 ,0.00000081,-0.00000926,0.00000108,-0.00000221,-0.00000371,-0.00000110
 ,0.00000079,-0.00000529,0.00000045,0.00000033,-0.00000266,0.00000034,0
 .00000472,0.00000007,0.00000045,0.00000466,-0.00000318,-0.00000180,0.0
 0000317,-0.00000420,-0.00000176,0.00000250,-0.00000293,-0.00001006,0.0
 0001184,0.00000182,-0.00000199,0.00000402,-0.00000110,-0.00000090,0.00
 000276,-0.00000401,-0.00003016,-0.00001254,-0.00000733,0.00002844,0.00
 001862,-0.00002359,-0.00002313,-0.00003596,-0.00001276,0.00002337,0.00
 001338,0.00000475\\\@


 I take a simple view of life: keep your eyes open and get on with it.
 -- Laurence Olivier
 Job cpu time:      21 days  0 hours 38 minutes 43.2 seconds.
 File lengths (MBytes):  RWF=  17358 Int=      0 D2E=      0 Chk=    104 Scr=      1
 Normal termination of Gaussian 09 at Tue May  3 23:41:14 2016.
