 Entering Gaussian System, Link 0=g09
 Initial command:
 /share/apps//g09/l1.exe "/scratch/Gau-18049.inp" -scrdir="/scratch/"
 Entering Link 1 = /share/apps//g09/l1.exe PID=     18050.
  
 Copyright (c) 1988,1990,1992,1993,1995,1998,2003,2009,2013,
            Gaussian, Inc.  All Rights Reserved.
  
 This is part of the Gaussian(R) 09 program.  It is based on
 the Gaussian(R) 03 system (copyright 2003, Gaussian, Inc.),
 the Gaussian(R) 98 system (copyright 1998, Gaussian, Inc.),
 the Gaussian(R) 94 system (copyright 1995, Gaussian, Inc.),
 the Gaussian 92(TM) system (copyright 1992, Gaussian, Inc.),
 the Gaussian 90(TM) system (copyright 1990, Gaussian, Inc.),
 the Gaussian 88(TM) system (copyright 1988, Gaussian, Inc.),
 the Gaussian 86(TM) system (copyright 1986, Carnegie Mellon
 University), and the Gaussian 82(TM) system (copyright 1983,
 Carnegie Mellon University). Gaussian is a federally registered
 trademark of Gaussian, Inc.
  
 This software contains proprietary and confidential information,
 including trade secrets, belonging to Gaussian, Inc.
  
 This software is provided under written license and may be
 used, copied, transmitted, or stored only in accord with that
 written license.
  
 The following legend is applicable only to US Government
 contracts under FAR:
  
                    RESTRICTED RIGHTS LEGEND
  
 Use, reproduction and disclosure by the US Government is
 subject to restrictions as set forth in subparagraphs (a)
 and (c) of the Commercial Computer Software - Restricted
 Rights clause in FAR 52.227-19.
  
 Gaussian, Inc.
 340 Quinnipiac St., Bldg. 40, Wallingford CT 06492
  
  
 ---------------------------------------------------------------
 Warning -- This program may not be used in any manner that
 competes with the business of Gaussian, Inc. or will provide
 assistance to any competitor of Gaussian, Inc.  The licensee
 of this program is prohibited from giving any competitor of
 Gaussian, Inc. access to this program.  By using this program,
 the user acknowledges that Gaussian, Inc. is engaged in the
 business of creating and licensing software in the field of
 computational chemistry and represents and warrants to the
 licensee that it is not a competitor of Gaussian, Inc. and that
 it will not use this program in any manner prohibited above.
 ---------------------------------------------------------------
  

 Cite this work as:
 Gaussian 09, Revision D.01,
 M. J. Frisch, G. W. Trucks, H. B. Schlegel, G. E. Scuseria, 
 M. A. Robb, J. R. Cheeseman, G. Scalmani, V. Barone, B. Mennucci, 
 G. A. Petersson, H. Nakatsuji, M. Caricato, X. Li, H. P. Hratchian, 
 A. F. Izmaylov, J. Bloino, G. Zheng, J. L. Sonnenberg, M. Hada, 
 M. Ehara, K. Toyota, R. Fukuda, J. Hasegawa, M. Ishida, T. Nakajima, 
 Y. Honda, O. Kitao, H. Nakai, T. Vreven, J. A. Montgomery, Jr., 
 J. E. Peralta, F. Ogliaro, M. Bearpark, J. J. Heyd, E. Brothers, 
 K. N. Kudin, V. N. Staroverov, T. Keith, R. Kobayashi, J. Normand, 
 K. Raghavachari, A. Rendell, J. C. Burant, S. S. Iyengar, J. Tomasi, 
 M. Cossi, N. Rega, J. M. Millam, M. Klene, J. E. Knox, J. B. Cross, 
 V. Bakken, C. Adamo, J. Jaramillo, R. Gomperts, R. E. Stratmann, 
 O. Yazyev, A. J. Austin, R. Cammi, C. Pomelli, J. W. Ochterski, 
 R. L. Martin, K. Morokuma, V. G. Zakrzewski, G. A. Voth, 
 P. Salvador, J. J. Dannenberg, S. Dapprich, A. D. Daniels, 
 O. Farkas, J. B. Foresman, J. V. Ortiz, J. Cioslowski, 
 and D. J. Fox, Gaussian, Inc., Wallingford CT, 2013.
 
 ******************************************
 Gaussian 09:  EM64L-G09RevD.01 24-Apr-2013
                24-Mar-2016 
 ******************************************
 %nproc=20
 Will use up to   20 processors via shared memory.
 %mem=80GB
 %chk=Tri_A154_of.chk
 -------------------------------------------------------------------
 #P PBE1PBE/6-311+G(d,p) opt optcyc=999 freq EmpiricalDispersion=GD3
 -------------------------------------------------------------------
 1/6=999,14=-1,18=20,19=15,26=3,38=1/1,3;
 2/9=110,12=2,17=6,18=5,40=1/2;
 3/5=4,6=6,7=111,11=2,16=1,25=1,30=1,71=1,74=-13,124=31/1,2,3;
 4//1;
 5/5=2,38=5/2;
 6/7=2,8=2,9=2,10=2,28=1/1;
 7//1,2,3,16;
 1/6=999,14=-1,18=20,19=15,26=3/3(2);
 2/9=110/2;
 99//99;
 2/9=110/2;
 3/5=4,6=6,7=111,11=2,16=1,25=1,30=1,71=1,74=-13,124=31/1,2,3;
 4/5=5,16=3,69=1/1;
 5/5=2,38=5/2;
 7//1,2,3,16;
 1/6=999,14=-1,18=20,19=15,26=3/3(-5);
 2/9=110/2;
 6/7=2,8=2,9=2,10=2,19=2,28=1/1;
 99/9=1/99;
 Leave Link    1 at Thu Mar 24 17:15:17 2016, MaxMem= 10737418240 cpu:         1.6
 (Enter /share/apps//g09/l101.exe)
 -------
 disacch
 -------
 Symbolic Z-matrix:
 Charge =  1 Multiplicity = 1
 O                     1.95961  -0.89458  -0.60024 
 C                     1.35137  -2.0799   -1.05287 
 C                     1.39127  -2.14521  -2.57134 
 C                     2.82776  -2.08635  -3.04505 
 C                     3.53629  -0.87385  -2.47326 
 C                     3.31885  -0.78939  -0.96676 
 C                     3.84549   0.50216  -0.37399 
 O                     3.14838   1.64441  -0.84203 
 O                     3.05913   0.3064   -3.09488 
 O                     2.90747  -1.98368  -4.44529 
 O                     0.85252  -3.33717  -3.0634 
 O                     0.03531  -2.01334  -0.61686 
 C                    -0.52918  -3.16449  -0.01982 
 C                    -1.87746  -3.43124  -0.65367 
 O                    -1.72422  -3.68952  -2.02875 
 C                    -2.78909  -2.24055  -0.43845 
 C                    -2.878    -1.89116   1.04734 
 O                    -1.58017  -1.75582   1.61716 
 C                    -0.76079  -2.90269   1.46071 
 C                     0.52092  -2.63711   2.22181 
 O                     1.36902  -3.74097   2.00611 
 O                    -3.59104  -0.7338    1.31426 
 C                    -3.19087   0.46125   0.6731 
 C                    -4.33618   1.00662  -0.15755 
 C                    -3.98057   2.36529  -0.72627 
 C                    -3.49211   3.30967   0.35732 
 O                    -2.41658   2.69656   1.04803 
 C                    -2.8097    1.51307   1.71616 
 C                    -1.68357   1.08713   2.62957 
 O                    -0.50987   0.72143   1.93057 
 O                    -3.05303   4.45095  -0.26844 
 C                    -2.95734   5.6316    0.52471 
 C                    -1.85056   5.57486   1.56229 
 C                    -0.50762   5.16926   0.96219 
 C                     0.37718   4.40687   1.93894 
 C                     1.47817   3.61313   1.26858 
 N                     0.92901   2.50883   0.43879 
 O                    -5.12887   2.84118  -1.37595 
 O                    -4.636     0.11636  -1.21059 
 O                    -4.04352  -2.5713   -0.95798 
 H                     1.85719  -2.95496  -0.61663 
 H                     0.84992  -1.26588  -2.94424 
 H                     3.33972  -2.99307  -2.6945 
 H                     4.61363  -0.97261  -2.65452 
 H                     3.89187  -1.61562  -0.5181 
 H                     4.91284   0.59045  -0.59846 
 H                     3.72898   0.47545   0.71031 
 H                     3.06728   1.53449  -1.80472 
 H                     2.95989   0.10762  -4.03261 
 H                     2.30452  -2.63162  -4.82008 
 H                    -0.08736  -3.39869  -2.82929 
 H                     0.12154  -4.03202  -0.14515 
 H                    -2.31777  -4.30753  -0.15937 
 H                    -2.6004   -3.65752  -2.42493 
 H                    -2.34748  -1.40053  -0.98385 
 H                    -3.41998  -2.6858    1.57192 
 H                    -1.25764  -3.77756   1.89956 
 H                     0.97697  -1.71125   1.85147 
 H                     0.27806  -2.50517   3.28005 
 H                     2.02885  -3.77892   2.69745 
 H                    -2.32197   0.29535   0.03056 
 H                    -5.21084   1.11272   0.49783 
 H                    -3.14982   2.23881  -1.43426 
 H                    -4.29974   3.53567   1.07377 
 H                    -3.68581   1.71104   2.35203 
 H                    -1.43217   1.92026   3.28681 
 H                    -2.02496   0.25539   3.2476 
 H                    -0.65063  -0.18892   1.61854 
 H                    -3.92273   5.82634   1.00338 
 H                    -2.77268   6.42807  -0.19701 
 H                    -2.13105   4.86064   2.33859 
 H                    -1.78966   6.55259   2.04655 
 H                     0.02428   6.04442   0.58026 
 H                    -0.72667   4.54266   0.09406 
 H                    -0.23986   3.72044   2.52419 
 H                     0.83922   5.09093   2.65392 
 H                     2.08856   4.23716   0.61486 
 H                     2.1391    3.15344   2.00216 
 H                     0.40842   1.80836   1.01543 
 H                     1.70757   2.0435   -0.08877 
 H                     0.25813   2.87383  -0.23203 
 H                    -4.91598   3.6692   -1.81122 
 H                    -5.27634   0.55117  -1.78116 
 H                    -4.51843  -1.73927  -1.09859 
 
 NAtoms=     84 NQM=       84 NQMF=       0 NMMI=      0 NMMIF=      0
                NMic=       0 NMicF=      0.
                    Isotopes and Nuclear Properties:
 (Nuclear quadrupole moments (NQMom) in fm**2, nuclear magnetic moments (NMagM)
  in nuclear magnetons)

  Atom         1           2           3           4           5           6           7           8           9          10
 IAtWgt=          16          12          12          12          12          12          12          16          16          16
 AtmWgt=  15.9949146  12.0000000  12.0000000  12.0000000  12.0000000  12.0000000  12.0000000  15.9949146  15.9949146  15.9949146
 NucSpn=           0           0           0           0           0           0           0           0           0           0
 AtZEff=   0.0000000   0.0000000   0.0000000   0.0000000   0.0000000   0.0000000   0.0000000   0.0000000   0.0000000   0.0000000
 NQMom=    0.0000000   0.0000000   0.0000000   0.0000000   0.0000000   0.0000000   0.0000000   0.0000000   0.0000000   0.0000000
 NMagM=    0.0000000   0.0000000   0.0000000   0.0000000   0.0000000   0.0000000   0.0000000   0.0000000   0.0000000   0.0000000
 AtZNuc=   8.0000000   6.0000000   6.0000000   6.0000000   6.0000000   6.0000000   6.0000000   8.0000000   8.0000000   8.0000000

  Atom        11          12          13          14          15          16          17          18          19          20
 IAtWgt=          16          16          12          12          16          12          12          16          12          12
 AtmWgt=  15.9949146  15.9949146  12.0000000  12.0000000  15.9949146  12.0000000  12.0000000  15.9949146  12.0000000  12.0000000
 NucSpn=           0           0           0           0           0           0           0           0           0           0
 AtZEff=   0.0000000   0.0000000   0.0000000   0.0000000   0.0000000   0.0000000   0.0000000   0.0000000   0.0000000   0.0000000
 NQMom=    0.0000000   0.0000000   0.0000000   0.0000000   0.0000000   0.0000000   0.0000000   0.0000000   0.0000000   0.0000000
 NMagM=    0.0000000   0.0000000   0.0000000   0.0000000   0.0000000   0.0000000   0.0000000   0.0000000   0.0000000   0.0000000
 AtZNuc=   8.0000000   8.0000000   6.0000000   6.0000000   8.0000000   6.0000000   6.0000000   8.0000000   6.0000000   6.0000000

  Atom        21          22          23          24          25          26          27          28          29          30
 IAtWgt=          16          16          12          12          12          12          16          12          12          16
 AtmWgt=  15.9949146  15.9949146  12.0000000  12.0000000  12.0000000  12.0000000  15.9949146  12.0000000  12.0000000  15.9949146
 NucSpn=           0           0           0           0           0           0           0           0           0           0
 AtZEff=   0.0000000   0.0000000   0.0000000   0.0000000   0.0000000   0.0000000   0.0000000   0.0000000   0.0000000   0.0000000
 NQMom=    0.0000000   0.0000000   0.0000000   0.0000000   0.0000000   0.0000000   0.0000000   0.0000000   0.0000000   0.0000000
 NMagM=    0.0000000   0.0000000   0.0000000   0.0000000   0.0000000   0.0000000   0.0000000   0.0000000   0.0000000   0.0000000
 AtZNuc=   8.0000000   8.0000000   6.0000000   6.0000000   6.0000000   6.0000000   8.0000000   6.0000000   6.0000000   8.0000000

  Atom        31          32          33          34          35          36          37          38          39          40
 IAtWgt=          16          12          12          12          12          12          14          16          16          16
 AtmWgt=  15.9949146  12.0000000  12.0000000  12.0000000  12.0000000  12.0000000  14.0030740  15.9949146  15.9949146  15.9949146
 NucSpn=           0           0           0           0           0           0           2           0           0           0
 AtZEff=   0.0000000   0.0000000   0.0000000   0.0000000   0.0000000   0.0000000   0.0000000   0.0000000   0.0000000   0.0000000
 NQMom=    0.0000000   0.0000000   0.0000000   0.0000000   0.0000000   0.0000000   2.0440000   0.0000000   0.0000000   0.0000000
 NMagM=    0.0000000   0.0000000   0.0000000   0.0000000   0.0000000   0.0000000   0.4037610   0.0000000   0.0000000   0.0000000
 AtZNuc=   8.0000000   6.0000000   6.0000000   6.0000000   6.0000000   6.0000000   7.0000000   8.0000000   8.0000000   8.0000000

  Atom        41          42          43          44          45          46          47          48          49          50
 IAtWgt=           1           1           1           1           1           1           1           1           1           1
 AtmWgt=   1.0078250   1.0078250   1.0078250   1.0078250   1.0078250   1.0078250   1.0078250   1.0078250   1.0078250   1.0078250
 NucSpn=           1           1           1           1           1           1           1           1           1           1
 AtZEff=   0.0000000   0.0000000   0.0000000   0.0000000   0.0000000   0.0000000   0.0000000   0.0000000   0.0000000   0.0000000
 NQMom=    0.0000000   0.0000000   0.0000000   0.0000000   0.0000000   0.0000000   0.0000000   0.0000000   0.0000000   0.0000000
 NMagM=    2.7928460   2.7928460   2.7928460   2.7928460   2.7928460   2.7928460   2.7928460   2.7928460   2.7928460   2.7928460
 AtZNuc=   1.0000000   1.0000000   1.0000000   1.0000000   1.0000000   1.0000000   1.0000000   1.0000000   1.0000000   1.0000000

  Atom        51          52          53          54          55          56          57          58          59          60
 IAtWgt=           1           1           1           1           1           1           1           1           1           1
 AtmWgt=   1.0078250   1.0078250   1.0078250   1.0078250   1.0078250   1.0078250   1.0078250   1.0078250   1.0078250   1.0078250
 NucSpn=           1           1           1           1           1           1           1           1           1           1
 AtZEff=   0.0000000   0.0000000   0.0000000   0.0000000   0.0000000   0.0000000   0.0000000   0.0000000   0.0000000   0.0000000
 NQMom=    0.0000000   0.0000000   0.0000000   0.0000000   0.0000000   0.0000000   0.0000000   0.0000000   0.0000000   0.0000000
 NMagM=    2.7928460   2.7928460   2.7928460   2.7928460   2.7928460   2.7928460   2.7928460   2.7928460   2.7928460   2.7928460
 AtZNuc=   1.0000000   1.0000000   1.0000000   1.0000000   1.0000000   1.0000000   1.0000000   1.0000000   1.0000000   1.0000000

  Atom        61          62          63          64          65          66          67          68          69          70
 IAtWgt=           1           1           1           1           1           1           1           1           1           1
 AtmWgt=   1.0078250   1.0078250   1.0078250   1.0078250   1.0078250   1.0078250   1.0078250   1.0078250   1.0078250   1.0078250
 NucSpn=           1           1           1           1           1           1           1           1           1           1
 AtZEff=   0.0000000   0.0000000   0.0000000   0.0000000   0.0000000   0.0000000   0.0000000   0.0000000   0.0000000   0.0000000
 NQMom=    0.0000000   0.0000000   0.0000000   0.0000000   0.0000000   0.0000000   0.0000000   0.0000000   0.0000000   0.0000000
 NMagM=    2.7928460   2.7928460   2.7928460   2.7928460   2.7928460   2.7928460   2.7928460   2.7928460   2.7928460   2.7928460
 AtZNuc=   1.0000000   1.0000000   1.0000000   1.0000000   1.0000000   1.0000000   1.0000000   1.0000000   1.0000000   1.0000000

  Atom        71          72          73          74          75          76          77          78          79          80
 IAtWgt=           1           1           1           1           1           1           1           1           1           1
 AtmWgt=   1.0078250   1.0078250   1.0078250   1.0078250   1.0078250   1.0078250   1.0078250   1.0078250   1.0078250   1.0078250
 NucSpn=           1           1           1           1           1           1           1           1           1           1
 AtZEff=   0.0000000   0.0000000   0.0000000   0.0000000   0.0000000   0.0000000   0.0000000   0.0000000   0.0000000   0.0000000
 NQMom=    0.0000000   0.0000000   0.0000000   0.0000000   0.0000000   0.0000000   0.0000000   0.0000000   0.0000000   0.0000000
 NMagM=    2.7928460   2.7928460   2.7928460   2.7928460   2.7928460   2.7928460   2.7928460   2.7928460   2.7928460   2.7928460
 AtZNuc=   1.0000000   1.0000000   1.0000000   1.0000000   1.0000000   1.0000000   1.0000000   1.0000000   1.0000000   1.0000000

  Atom        81          82          83          84
 IAtWgt=           1           1           1           1
 AtmWgt=   1.0078250   1.0078250   1.0078250   1.0078250
 NucSpn=           1           1           1           1
 AtZEff=   0.0000000   0.0000000   0.0000000   0.0000000
 NQMom=    0.0000000   0.0000000   0.0000000   0.0000000
 NMagM=    2.7928460   2.7928460   2.7928460   2.7928460
 AtZNuc=   1.0000000   1.0000000   1.0000000   1.0000000
 Leave Link  101 at Thu Mar 24 17:15:18 2016, MaxMem= 10737418240 cpu:         4.5
 (Enter /share/apps//g09/l103.exe)

 GradGradGradGradGradGradGradGradGradGradGradGradGradGradGradGradGradGrad
 Berny optimization.
 Initialization pass.
                           ----------------------------
                           !    Initial Parameters    !
                           ! (Angstroms and Degrees)  !
 --------------------------                            --------------------------
 ! Name  Definition              Value          Derivative Info.                !
 --------------------------------------------------------------------------------
 ! R1    R(1,2)                  1.4071         estimate D2E/DX2                !
 ! R2    R(1,6)                  1.4117         estimate D2E/DX2                !
 ! R3    R(2,3)                  1.5204         estimate D2E/DX2                !
 ! R4    R(2,12)                 1.388          estimate D2E/DX2                !
 ! R5    R(2,41)                 1.1009         estimate D2E/DX2                !
 ! R6    R(3,4)                  1.5137         estimate D2E/DX2                !
 ! R7    R(3,11)                 1.3975         estimate D2E/DX2                !
 ! R8    R(3,42)                 1.0979         estimate D2E/DX2                !
 ! R9    R(4,5)                  1.5163         estimate D2E/DX2                !
 ! R10   R(4,10)                 1.4063         estimate D2E/DX2                !
 ! R11   R(4,43)                 1.0987         estimate D2E/DX2                !
 ! R12   R(5,6)                  1.5245         estimate D2E/DX2                !
 ! R13   R(5,9)                  1.4167         estimate D2E/DX2                !
 ! R14   R(5,44)                 1.0969         estimate D2E/DX2                !
 ! R15   R(6,7)                  1.5155         estimate D2E/DX2                !
 ! R16   R(6,45)                 1.101          estimate D2E/DX2                !
 ! R17   R(7,8)                  1.4177         estimate D2E/DX2                !
 ! R18   R(7,46)                 1.0943         estimate D2E/DX2                !
 ! R19   R(7,47)                 1.0909         estimate D2E/DX2                !
 ! R20   R(8,48)                 0.9723         estimate D2E/DX2                !
 ! R21   R(9,49)                 0.9637         estimate D2E/DX2                !
 ! R22   R(10,50)                0.9612         estimate D2E/DX2                !
 ! R23   R(11,51)                0.9705         estimate D2E/DX2                !
 ! R24   R(12,13)                1.4143         estimate D2E/DX2                !
 ! R25   R(13,14)                1.5135         estimate D2E/DX2                !
 ! R26   R(13,19)                1.5212         estimate D2E/DX2                !
 ! R27   R(13,52)                1.0917         estimate D2E/DX2                !
 ! R28   R(14,15)                1.4075         estimate D2E/DX2                !
 ! R29   R(14,16)                1.515          estimate D2E/DX2                !
 ! R30   R(14,53)                1.0982         estimate D2E/DX2                !
 ! R31   R(15,54)                0.9621         estimate D2E/DX2                !
 ! R32   R(16,17)                1.5289         estimate D2E/DX2                !
 ! R33   R(16,40)                1.3975         estimate D2E/DX2                !
 ! R34   R(16,55)                1.0946         estimate D2E/DX2                !
 ! R35   R(17,18)                1.4239         estimate D2E/DX2                !
 ! R36   R(17,22)                1.3853         estimate D2E/DX2                !
 ! R37   R(17,56)                1.0956         estimate D2E/DX2                !
 ! R38   R(18,19)                1.4182         estimate D2E/DX2                !
 ! R39   R(19,20)                1.5141         estimate D2E/DX2                !
 ! R40   R(19,57)                1.0977         estimate D2E/DX2                !
 ! R41   R(20,21)                1.4087         estimate D2E/DX2                !
 ! R42   R(20,58)                1.0965         estimate D2E/DX2                !
 ! R43   R(20,59)                1.0937         estimate D2E/DX2                !
 ! R44   R(21,60)                0.9564         estimate D2E/DX2                !
 ! R45   R(22,23)                1.414          estimate D2E/DX2                !
 ! R46   R(23,24)                1.5163         estimate D2E/DX2                !
 ! R47   R(23,28)                1.5296         estimate D2E/DX2                !
 ! R48   R(23,61)                1.0933         estimate D2E/DX2                !
 ! R49   R(24,25)                1.5152         estimate D2E/DX2                !
 ! R50   R(24,39)                1.4112         estimate D2E/DX2                !
 ! R51   R(24,62)                1.0981         estimate D2E/DX2                !
 ! R52   R(25,26)                1.5181         estimate D2E/DX2                !
 ! R53   R(25,38)                1.4026         estimate D2E/DX2                !
 ! R54   R(25,63)                1.0988         estimate D2E/DX2                !
 ! R55   R(26,27)                1.4177         estimate D2E/DX2                !
 ! R56   R(26,31)                1.3736         estimate D2E/DX2                !
 ! R57   R(26,64)                1.103          estimate D2E/DX2                !
 ! R58   R(27,28)                1.4148         estimate D2E/DX2                !
 ! R59   R(28,29)                1.5113         estimate D2E/DX2                !
 ! R60   R(28,65)                1.1005         estimate D2E/DX2                !
 ! R61   R(29,30)                1.4142         estimate D2E/DX2                !
 ! R62   R(29,66)                1.0905         estimate D2E/DX2                !
 ! R63   R(29,67)                1.091          estimate D2E/DX2                !
 ! R64   R(30,68)                0.9726         estimate D2E/DX2                !
 ! R65   R(31,32)                1.4255         estimate D2E/DX2                !
 ! R66   R(32,33)                1.5181         estimate D2E/DX2                !
 ! R67   R(32,69)                1.095          estimate D2E/DX2                !
 ! R68   R(32,70)                1.0906         estimate D2E/DX2                !
 ! R69   R(33,34)                1.5258         estimate D2E/DX2                !
 ! R70   R(33,71)                1.0915         estimate D2E/DX2                !
 ! R71   R(33,72)                1.0928         estimate D2E/DX2                !
 ! R72   R(34,35)                1.5225         estimate D2E/DX2                !
 ! R73   R(34,73)                1.093          estimate D2E/DX2                !
 ! R74   R(34,74)                1.0928         estimate D2E/DX2                !
 ! R75   R(35,36)                1.5138         estimate D2E/DX2                !
 ! R76   R(35,75)                1.0929         estimate D2E/DX2                !
 ! R77   R(35,76)                1.0921         estimate D2E/DX2                !
 ! R78   R(36,37)                1.4865         estimate D2E/DX2                !
 ! R79   R(36,77)                1.0906         estimate D2E/DX2                !
 ! R80   R(36,78)                1.0892         estimate D2E/DX2                !
 ! R81   R(37,79)                1.046          estimate D2E/DX2                !
 ! R82   R(37,80)                1.0493         estimate D2E/DX2                !
 ! R83   R(37,81)                1.0165         estimate D2E/DX2                !
 ! R84   R(38,82)                0.9594         estimate D2E/DX2                !
 ! R85   R(39,83)                0.9616         estimate D2E/DX2                !
 ! R86   R(40,84)                0.9683         estimate D2E/DX2                !
 ! A1    A(2,1,6)              113.2948         estimate D2E/DX2                !
 ! A2    A(1,2,3)              110.2502         estimate D2E/DX2                !
 ! A3    A(1,2,12)             105.5706         estimate D2E/DX2                !
 ! A4    A(1,2,41)             110.0918         estimate D2E/DX2                !
 ! A5    A(3,2,12)             109.9178         estimate D2E/DX2                !
 ! A6    A(3,2,41)             110.4608         estimate D2E/DX2                !
 ! A7    A(12,2,41)            110.4445         estimate D2E/DX2                !
 ! A8    A(2,3,4)              109.62           estimate D2E/DX2                !
 ! A9    A(2,3,11)             112.2199         estimate D2E/DX2                !
 ! A10   A(2,3,42)             106.9705         estimate D2E/DX2                !
 ! A11   A(4,3,11)             106.7866         estimate D2E/DX2                !
 ! A12   A(4,3,42)             109.2986         estimate D2E/DX2                !
 ! A13   A(11,3,42)            111.928          estimate D2E/DX2                !
 ! A14   A(3,4,5)              110.8867         estimate D2E/DX2                !
 ! A15   A(3,4,10)             111.6066         estimate D2E/DX2                !
 ! A16   A(3,4,43)             108.0748         estimate D2E/DX2                !
 ! A17   A(5,4,10)             106.8949         estimate D2E/DX2                !
 ! A18   A(5,4,43)             108.7762         estimate D2E/DX2                !
 ! A19   A(10,4,43)            110.5812         estimate D2E/DX2                !
 ! A20   A(4,5,6)              110.5064         estimate D2E/DX2                !
 ! A21   A(4,5,9)              110.0803         estimate D2E/DX2                !
 ! A22   A(4,5,44)             108.9429         estimate D2E/DX2                !
 ! A23   A(6,5,9)              109.841          estimate D2E/DX2                !
 ! A24   A(6,5,44)             107.9611         estimate D2E/DX2                !
 ! A25   A(9,5,44)             109.4687         estimate D2E/DX2                !
 ! A26   A(1,6,5)              112.9405         estimate D2E/DX2                !
 ! A27   A(1,6,7)              107.2494         estimate D2E/DX2                !
 ! A28   A(1,6,45)             109.839          estimate D2E/DX2                !
 ! A29   A(5,6,7)              112.5925         estimate D2E/DX2                !
 ! A30   A(5,6,45)             106.6712         estimate D2E/DX2                !
 ! A31   A(7,6,45)             107.414          estimate D2E/DX2                !
 ! A32   A(6,7,8)              112.7459         estimate D2E/DX2                !
 ! A33   A(6,7,46)             109.1156         estimate D2E/DX2                !
 ! A34   A(6,7,47)             109.317          estimate D2E/DX2                !
 ! A35   A(8,7,46)             110.298          estimate D2E/DX2                !
 ! A36   A(8,7,47)             107.1798         estimate D2E/DX2                !
 ! A37   A(46,7,47)            108.0623         estimate D2E/DX2                !
 ! A38   A(7,8,48)             106.0695         estimate D2E/DX2                !
 ! A39   A(5,9,49)             106.8459         estimate D2E/DX2                !
 ! A40   A(4,10,50)            107.6673         estimate D2E/DX2                !
 ! A41   A(3,11,51)            110.0261         estimate D2E/DX2                !
 ! A42   A(2,12,13)            118.1654         estimate D2E/DX2                !
 ! A43   A(12,13,14)           108.7968         estimate D2E/DX2                !
 ! A44   A(12,13,19)           109.3624         estimate D2E/DX2                !
 ! A45   A(12,13,52)           111.1273         estimate D2E/DX2                !
 ! A46   A(14,13,19)           107.5949         estimate D2E/DX2                !
 ! A47   A(14,13,52)           110.0511         estimate D2E/DX2                !
 ! A48   A(19,13,52)           109.8311         estimate D2E/DX2                !
 ! A49   A(13,14,15)           110.1512         estimate D2E/DX2                !
 ! A50   A(13,14,16)           109.7572         estimate D2E/DX2                !
 ! A51   A(13,14,53)           108.0164         estimate D2E/DX2                !
 ! A52   A(15,14,16)           110.3975         estimate D2E/DX2                !
 ! A53   A(15,14,53)           109.6916         estimate D2E/DX2                !
 ! A54   A(16,14,53)           108.7793         estimate D2E/DX2                !
 ! A55   A(14,15,54)           107.2801         estimate D2E/DX2                !
 ! A56   A(14,16,17)           110.6499         estimate D2E/DX2                !
 ! A57   A(14,16,40)           107.5373         estimate D2E/DX2                !
 ! A58   A(14,16,55)           106.8342         estimate D2E/DX2                !
 ! A59   A(17,16,40)           111.2949         estimate D2E/DX2                !
 ! A60   A(17,16,55)           109.4088         estimate D2E/DX2                !
 ! A61   A(40,16,55)           111.0112         estimate D2E/DX2                !
 ! A62   A(16,17,18)           110.9544         estimate D2E/DX2                !
 ! A63   A(16,17,22)           114.0849         estimate D2E/DX2                !
 ! A64   A(16,17,56)           109.1667         estimate D2E/DX2                !
 ! A65   A(18,17,22)           108.2178         estimate D2E/DX2                !
 ! A66   A(18,17,56)           109.1609         estimate D2E/DX2                !
 ! A67   A(22,17,56)           105.0147         estimate D2E/DX2                !
 ! A68   A(17,18,19)           113.93           estimate D2E/DX2                !
 ! A69   A(13,19,18)           109.5428         estimate D2E/DX2                !
 ! A70   A(13,19,20)           112.9869         estimate D2E/DX2                !
 ! A71   A(13,19,57)           108.7148         estimate D2E/DX2                !
 ! A72   A(18,19,20)           106.965          estimate D2E/DX2                !
 ! A73   A(18,19,57)           109.8117         estimate D2E/DX2                !
 ! A74   A(20,19,57)           108.7838         estimate D2E/DX2                !
 ! A75   A(19,20,21)           107.1712         estimate D2E/DX2                !
 ! A76   A(19,20,58)           109.2929         estimate D2E/DX2                !
 ! A77   A(19,20,59)           108.6356         estimate D2E/DX2                !
 ! A78   A(21,20,58)           111.0724         estimate D2E/DX2                !
 ! A79   A(21,20,59)           112.1091         estimate D2E/DX2                !
 ! A80   A(58,20,59)           108.4981         estimate D2E/DX2                !
 ! A81   A(20,21,60)           109.6191         estimate D2E/DX2                !
 ! A82   A(17,22,23)           118.2322         estimate D2E/DX2                !
 ! A83   A(22,23,24)           109.7927         estimate D2E/DX2                !
 ! A84   A(22,23,28)           110.0288         estimate D2E/DX2                !
 ! A85   A(22,23,61)           111.294          estimate D2E/DX2                !
 ! A86   A(24,23,28)           108.3288         estimate D2E/DX2                !
 ! A87   A(24,23,61)           109.4459         estimate D2E/DX2                !
 ! A88   A(28,23,61)           107.8822         estimate D2E/DX2                !
 ! A89   A(23,24,25)           110.5398         estimate D2E/DX2                !
 ! A90   A(23,24,39)           110.0213         estimate D2E/DX2                !
 ! A91   A(23,24,62)           108.0256         estimate D2E/DX2                !
 ! A92   A(25,24,39)           109.6012         estimate D2E/DX2                !
 ! A93   A(25,24,62)           108.924          estimate D2E/DX2                !
 ! A94   A(39,24,62)           109.7001         estimate D2E/DX2                !
 ! A95   A(24,25,26)           111.4331         estimate D2E/DX2                !
 ! A96   A(24,25,38)           106.6163         estimate D2E/DX2                !
 ! A97   A(24,25,63)           108.425          estimate D2E/DX2                !
 ! A98   A(26,25,38)           112.519          estimate D2E/DX2                !
 ! A99   A(26,25,63)           106.7531         estimate D2E/DX2                !
 ! A100  A(38,25,63)           111.0748         estimate D2E/DX2                !
 ! A101  A(25,26,27)           108.8346         estimate D2E/DX2                !
 ! A102  A(25,26,31)           107.1299         estimate D2E/DX2                !
 ! A103  A(25,26,64)           110.8239         estimate D2E/DX2                !
 ! A104  A(27,26,31)           109.802          estimate D2E/DX2                !
 ! A105  A(27,26,64)           109.1258         estimate D2E/DX2                !
 ! A106  A(31,26,64)           111.0823         estimate D2E/DX2                !
 ! A107  A(26,27,28)           112.3994         estimate D2E/DX2                !
 ! A108  A(23,28,27)           108.8107         estimate D2E/DX2                !
 ! A109  A(23,28,29)           113.8311         estimate D2E/DX2                !
 ! A110  A(23,28,65)           108.6227         estimate D2E/DX2                !
 ! A111  A(27,28,29)           108.3091         estimate D2E/DX2                !
 ! A112  A(27,28,65)           110.0962         estimate D2E/DX2                !
 ! A113  A(29,28,65)           107.1396         estimate D2E/DX2                !
 ! A114  A(28,29,30)           113.1154         estimate D2E/DX2                !
 ! A115  A(28,29,66)           108.7065         estimate D2E/DX2                !
 ! A116  A(28,29,67)           108.9096         estimate D2E/DX2                !
 ! A117  A(30,29,66)           107.7052         estimate D2E/DX2                !
 ! A118  A(30,29,67)           110.0327         estimate D2E/DX2                !
 ! A119  A(66,29,67)           108.249          estimate D2E/DX2                !
 ! A120  A(29,30,68)           106.2906         estimate D2E/DX2                !
 ! A121  A(26,31,32)           117.1363         estimate D2E/DX2                !
 ! A122  A(31,32,33)           113.4685         estimate D2E/DX2                !
 ! A123  A(31,32,69)           109.3496         estimate D2E/DX2                !
 ! A124  A(31,32,70)           104.3605         estimate D2E/DX2                !
 ! A125  A(33,32,69)           110.5255         estimate D2E/DX2                !
 ! A126  A(33,32,70)           110.8639         estimate D2E/DX2                !
 ! A127  A(69,32,70)           107.9803         estimate D2E/DX2                !
 ! A128  A(32,33,34)           112.5067         estimate D2E/DX2                !
 ! A129  A(32,33,71)           108.8561         estimate D2E/DX2                !
 ! A130  A(32,33,72)           108.0627         estimate D2E/DX2                !
 ! A131  A(34,33,71)           109.3871         estimate D2E/DX2                !
 ! A132  A(34,33,72)           111.2892         estimate D2E/DX2                !
 ! A133  A(71,33,72)           106.5347         estimate D2E/DX2                !
 ! A134  A(33,34,35)           113.0963         estimate D2E/DX2                !
 ! A135  A(33,34,73)           110.6645         estimate D2E/DX2                !
 ! A136  A(33,34,74)           106.764          estimate D2E/DX2                !
 ! A137  A(35,34,73)           110.0167         estimate D2E/DX2                !
 ! A138  A(35,34,74)           109.8158         estimate D2E/DX2                !
 ! A139  A(73,34,74)           106.2037         estimate D2E/DX2                !
 ! A140  A(34,35,36)           113.6484         estimate D2E/DX2                !
 ! A141  A(34,35,75)           109.2649         estimate D2E/DX2                !
 ! A142  A(34,35,76)           110.6233         estimate D2E/DX2                !
 ! A143  A(36,35,75)           108.5685         estimate D2E/DX2                !
 ! A144  A(36,35,76)           108.0984         estimate D2E/DX2                !
 ! A145  A(75,35,76)           106.3616         estimate D2E/DX2                !
 ! A146  A(35,36,37)           111.5946         estimate D2E/DX2                !
 ! A147  A(35,36,77)           111.8693         estimate D2E/DX2                !
 ! A148  A(35,36,78)           111.3697         estimate D2E/DX2                !
 ! A149  A(37,36,77)           107.2923         estimate D2E/DX2                !
 ! A150  A(37,36,78)           106.6555         estimate D2E/DX2                !
 ! A151  A(77,36,78)           107.7941         estimate D2E/DX2                !
 ! A152  A(36,37,79)           111.9384         estimate D2E/DX2                !
 ! A153  A(36,37,80)           109.6334         estimate D2E/DX2                !
 ! A154  A(36,37,81)           110.2096         estimate D2E/DX2                !
 ! A155  A(79,37,80)           110.4548         estimate D2E/DX2                !
 ! A156  A(79,37,81)           106.0085         estimate D2E/DX2                !
 ! A157  A(80,37,81)           108.4901         estimate D2E/DX2                !
 ! A158  A(25,38,82)           108.7433         estimate D2E/DX2                !
 ! A159  A(24,39,83)           107.3976         estimate D2E/DX2                !
 ! A160  A(16,40,84)           106.9104         estimate D2E/DX2                !
 ! D1    D(6,1,2,3)            -60.9638         estimate D2E/DX2                !
 ! D2    D(6,1,2,12)          -179.6329         estimate D2E/DX2                !
 ! D3    D(6,1,2,41)            61.1558         estimate D2E/DX2                !
 ! D4    D(2,1,6,5)             57.2923         estimate D2E/DX2                !
 ! D5    D(2,1,6,7)           -178.0806         estimate D2E/DX2                !
 ! D6    D(2,1,6,45)           -61.6467         estimate D2E/DX2                !
 ! D7    D(1,2,3,4)             58.7441         estimate D2E/DX2                !
 ! D8    D(1,2,3,11)           177.2222         estimate D2E/DX2                !
 ! D9    D(1,2,3,42)           -59.6558         estimate D2E/DX2                !
 ! D10   D(12,2,3,4)           174.7198         estimate D2E/DX2                !
 ! D11   D(12,2,3,11)          -66.802          estimate D2E/DX2                !
 ! D12   D(12,2,3,42)           56.32           estimate D2E/DX2                !
 ! D13   D(41,2,3,4)           -63.1574         estimate D2E/DX2                !
 ! D14   D(41,2,3,11)           55.3208         estimate D2E/DX2                !
 ! D15   D(41,2,3,42)          178.4427         estimate D2E/DX2                !
 ! D16   D(1,2,12,13)         -134.5441         estimate D2E/DX2                !
 ! D17   D(3,2,12,13)          106.5656         estimate D2E/DX2                !
 ! D18   D(41,2,12,13)         -15.5669         estimate D2E/DX2                !
 ! D19   D(2,3,4,5)            -53.9078         estimate D2E/DX2                !
 ! D20   D(2,3,4,10)          -172.9663         estimate D2E/DX2                !
 ! D21   D(2,3,4,43)            65.2314         estimate D2E/DX2                !
 ! D22   D(11,3,4,5)          -175.7024         estimate D2E/DX2                !
 ! D23   D(11,3,4,10)           65.2391         estimate D2E/DX2                !
 ! D24   D(11,3,4,43)          -56.5631         estimate D2E/DX2                !
 ! D25   D(42,3,4,5)            63.0379         estimate D2E/DX2                !
 ! D26   D(42,3,4,10)          -56.0206         estimate D2E/DX2                !
 ! D27   D(42,3,4,43)         -177.8228         estimate D2E/DX2                !
 ! D28   D(2,3,11,51)           63.1305         estimate D2E/DX2                !
 ! D29   D(4,3,11,51)         -176.7313         estimate D2E/DX2                !
 ! D30   D(42,3,11,51)         -57.1563         estimate D2E/DX2                !
 ! D31   D(3,4,5,6)             49.5833         estimate D2E/DX2                !
 ! D32   D(3,4,5,9)            -71.9202         estimate D2E/DX2                !
 ! D33   D(3,4,5,44)           168.0371         estimate D2E/DX2                !
 ! D34   D(10,4,5,6)           171.441          estimate D2E/DX2                !
 ! D35   D(10,4,5,9)            49.9375         estimate D2E/DX2                !
 ! D36   D(10,4,5,44)          -70.1052         estimate D2E/DX2                !
 ! D37   D(43,4,5,6)           -69.1331         estimate D2E/DX2                !
 ! D38   D(43,4,5,9)           169.3634         estimate D2E/DX2                !
 ! D39   D(43,4,5,44)           49.3207         estimate D2E/DX2                !
 ! D40   D(3,4,10,50)          -46.3714         estimate D2E/DX2                !
 ! D41   D(5,4,10,50)         -167.7746         estimate D2E/DX2                !
 ! D42   D(43,4,10,50)          73.9718         estimate D2E/DX2                !
 ! D43   D(4,5,6,1)            -50.5447         estimate D2E/DX2                !
 ! D44   D(4,5,6,7)           -172.2048         estimate D2E/DX2                !
 ! D45   D(4,5,6,45)            70.2154         estimate D2E/DX2                !
 ! D46   D(9,5,6,1)             71.1002         estimate D2E/DX2                !
 ! D47   D(9,5,6,7)            -50.5599         estimate D2E/DX2                !
 ! D48   D(9,5,6,45)          -168.1397         estimate D2E/DX2                !
 ! D49   D(44,5,6,1)          -169.5956         estimate D2E/DX2                !
 ! D50   D(44,5,6,7)            68.7443         estimate D2E/DX2                !
 ! D51   D(44,5,6,45)          -48.8355         estimate D2E/DX2                !
 ! D52   D(4,5,9,49)           -40.8941         estimate D2E/DX2                !
 ! D53   D(6,5,9,49)          -162.7934         estimate D2E/DX2                !
 ! D54   D(44,5,9,49)           78.8298         estimate D2E/DX2                !
 ! D55   D(1,6,7,8)            -59.8512         estimate D2E/DX2                !
 ! D56   D(1,6,7,46)           177.2324         estimate D2E/DX2                !
 ! D57   D(1,6,7,47)            59.2494         estimate D2E/DX2                !
 ! D58   D(5,6,7,8)             64.9866         estimate D2E/DX2                !
 ! D59   D(5,6,7,46)           -57.9299         estimate D2E/DX2                !
 ! D60   D(5,6,7,47)          -175.9128         estimate D2E/DX2                !
 ! D61   D(45,6,7,8)          -177.8737         estimate D2E/DX2                !
 ! D62   D(45,6,7,46)           59.2098         estimate D2E/DX2                !
 ! D63   D(45,6,7,47)          -58.7731         estimate D2E/DX2                !
 ! D64   D(6,7,8,48)           -45.6395         estimate D2E/DX2                !
 ! D65   D(46,7,8,48)           76.6142         estimate D2E/DX2                !
 ! D66   D(47,7,8,48)         -165.9748         estimate D2E/DX2                !
 ! D67   D(2,12,13,14)        -131.4584         estimate D2E/DX2                !
 ! D68   D(2,12,13,19)         111.279          estimate D2E/DX2                !
 ! D69   D(2,12,13,52)         -10.1399         estimate D2E/DX2                !
 ! D70   D(12,13,14,15)         61.9787         estimate D2E/DX2                !
 ! D71   D(12,13,14,16)        -59.7759         estimate D2E/DX2                !
 ! D72   D(12,13,14,53)       -178.2339         estimate D2E/DX2                !
 ! D73   D(19,13,14,15)       -179.6395         estimate D2E/DX2                !
 ! D74   D(19,13,14,16)         58.6059         estimate D2E/DX2                !
 ! D75   D(19,13,14,53)        -59.852          estimate D2E/DX2                !
 ! D76   D(52,13,14,15)        -59.9957         estimate D2E/DX2                !
 ! D77   D(52,13,14,16)        178.2497         estimate D2E/DX2                !
 ! D78   D(52,13,14,53)         59.7917         estimate D2E/DX2                !
 ! D79   D(12,13,19,18)         56.4045         estimate D2E/DX2                !
 ! D80   D(12,13,19,20)        -62.733          estimate D2E/DX2                !
 ! D81   D(12,13,19,57)        176.4028         estimate D2E/DX2                !
 ! D82   D(14,13,19,18)        -61.6125         estimate D2E/DX2                !
 ! D83   D(14,13,19,20)        179.25           estimate D2E/DX2                !
 ! D84   D(14,13,19,57)         58.3859         estimate D2E/DX2                !
 ! D85   D(52,13,19,18)        178.6039         estimate D2E/DX2                !
 ! D86   D(52,13,19,20)         59.4664         estimate D2E/DX2                !
 ! D87   D(52,13,19,57)        -61.3977         estimate D2E/DX2                !
 ! D88   D(13,14,15,54)       -167.5997         estimate D2E/DX2                !
 ! D89   D(16,14,15,54)        -46.226          estimate D2E/DX2                !
 ! D90   D(53,14,15,54)         73.6332         estimate D2E/DX2                !
 ! D91   D(13,14,16,17)        -54.2395         estimate D2E/DX2                !
 ! D92   D(13,14,16,40)       -175.983          estimate D2E/DX2                !
 ! D93   D(13,14,16,55)         64.7763         estimate D2E/DX2                !
 ! D94   D(15,14,16,17)       -175.8467         estimate D2E/DX2                !
 ! D95   D(15,14,16,40)         62.4098         estimate D2E/DX2                !
 ! D96   D(15,14,16,55)        -56.8309         estimate D2E/DX2                !
 ! D97   D(53,14,16,17)         63.7457         estimate D2E/DX2                !
 ! D98   D(53,14,16,40)        -57.9978         estimate D2E/DX2                !
 ! D99   D(53,14,16,55)       -177.2385         estimate D2E/DX2                !
 ! D100  D(14,16,17,18)         51.5794         estimate D2E/DX2                !
 ! D101  D(14,16,17,22)        174.1185         estimate D2E/DX2                !
 ! D102  D(14,16,17,56)        -68.7653         estimate D2E/DX2                !
 ! D103  D(40,16,17,18)        171.0851         estimate D2E/DX2                !
 ! D104  D(40,16,17,22)        -66.3758         estimate D2E/DX2                !
 ! D105  D(40,16,17,56)         50.7404         estimate D2E/DX2                !
 ! D106  D(55,16,17,18)        -65.8668         estimate D2E/DX2                !
 ! D107  D(55,16,17,22)         56.6723         estimate D2E/DX2                !
 ! D108  D(55,16,17,56)        173.7885         estimate D2E/DX2                !
 ! D109  D(14,16,40,84)       -160.9264         estimate D2E/DX2                !
 ! D110  D(17,16,40,84)         77.7328         estimate D2E/DX2                !
 ! D111  D(55,16,40,84)        -44.3924         estimate D2E/DX2                !
 ! D112  D(16,17,18,19)        -56.5366         estimate D2E/DX2                !
 ! D113  D(22,17,18,19)        177.5834         estimate D2E/DX2                !
 ! D114  D(56,17,18,19)         63.8115         estimate D2E/DX2                !
 ! D115  D(16,17,22,23)        -55.3757         estimate D2E/DX2                !
 ! D116  D(18,17,22,23)         68.647          estimate D2E/DX2                !
 ! D117  D(56,17,22,23)       -174.8633         estimate D2E/DX2                !
 ! D118  D(17,18,19,13)         62.1237         estimate D2E/DX2                !
 ! D119  D(17,18,19,20)       -175.0883         estimate D2E/DX2                !
 ! D120  D(17,18,19,57)        -57.2015         estimate D2E/DX2                !
 ! D121  D(13,19,20,21)        -56.0784         estimate D2E/DX2                !
 ! D122  D(13,19,20,58)         64.3777         estimate D2E/DX2                !
 ! D123  D(13,19,20,59)       -177.4061         estimate D2E/DX2                !
 ! D124  D(18,19,20,21)       -176.696          estimate D2E/DX2                !
 ! D125  D(18,19,20,58)        -56.2398         estimate D2E/DX2                !
 ! D126  D(18,19,20,59)         61.9764         estimate D2E/DX2                !
 ! D127  D(57,19,20,21)         64.7465         estimate D2E/DX2                !
 ! D128  D(57,19,20,58)       -174.7973         estimate D2E/DX2                !
 ! D129  D(57,19,20,59)        -56.5811         estimate D2E/DX2                !
 ! D130  D(19,20,21,60)       -159.1887         estimate D2E/DX2                !
 ! D131  D(58,20,21,60)         81.4934         estimate D2E/DX2                !
 ! D132  D(59,20,21,60)        -40.0759         estimate D2E/DX2                !
 ! D133  D(17,22,23,24)        120.7235         estimate D2E/DX2                !
 ! D134  D(17,22,23,28)       -120.1382         estimate D2E/DX2                !
 ! D135  D(17,22,23,61)         -0.6095         estimate D2E/DX2                !
 ! D136  D(22,23,24,25)        173.6186         estimate D2E/DX2                !
 ! D137  D(22,23,24,39)        -65.1955         estimate D2E/DX2                !
 ! D138  D(22,23,24,62)         54.532          estimate D2E/DX2                !
 ! D139  D(28,23,24,25)         53.4419         estimate D2E/DX2                !
 ! D140  D(28,23,24,39)        174.6278         estimate D2E/DX2                !
 ! D141  D(28,23,24,62)        -65.6448         estimate D2E/DX2                !
 ! D142  D(61,23,24,25)        -63.9452         estimate D2E/DX2                !
 ! D143  D(61,23,24,39)         57.2407         estimate D2E/DX2                !
 ! D144  D(61,23,24,62)        176.9682         estimate D2E/DX2                !
 ! D145  D(22,23,28,27)       -179.8956         estimate D2E/DX2                !
 ! D146  D(22,23,28,29)         59.2232         estimate D2E/DX2                !
 ! D147  D(22,23,28,65)        -60.0393         estimate D2E/DX2                !
 ! D148  D(24,23,28,27)        -59.8664         estimate D2E/DX2                !
 ! D149  D(24,23,28,29)        179.2524         estimate D2E/DX2                !
 ! D150  D(24,23,28,65)         59.9899         estimate D2E/DX2                !
 ! D151  D(61,23,28,27)         58.5189         estimate D2E/DX2                !
 ! D152  D(61,23,28,29)        -62.3623         estimate D2E/DX2                !
 ! D153  D(61,23,28,65)        178.3752         estimate D2E/DX2                !
 ! D154  D(23,24,25,26)        -51.8442         estimate D2E/DX2                !
 ! D155  D(23,24,25,38)       -174.973          estimate D2E/DX2                !
 ! D156  D(23,24,25,63)         65.3606         estimate D2E/DX2                !
 ! D157  D(39,24,25,26)       -173.2789         estimate D2E/DX2                !
 ! D158  D(39,24,25,38)         63.5923         estimate D2E/DX2                !
 ! D159  D(39,24,25,63)        -56.0741         estimate D2E/DX2                !
 ! D160  D(62,24,25,26)         66.6967         estimate D2E/DX2                !
 ! D161  D(62,24,25,38)        -56.4321         estimate D2E/DX2                !
 ! D162  D(62,24,25,63)       -176.0985         estimate D2E/DX2                !
 ! D163  D(23,24,39,83)       -172.2142         estimate D2E/DX2                !
 ! D164  D(25,24,39,83)        -50.4679         estimate D2E/DX2                !
 ! D165  D(62,24,39,83)         69.0814         estimate D2E/DX2                !
 ! D166  D(24,25,26,27)         54.5809         estimate D2E/DX2                !
 ! D167  D(24,25,26,31)        173.2457         estimate D2E/DX2                !
 ! D168  D(24,25,26,64)        -65.4262         estimate D2E/DX2                !
 ! D169  D(38,25,26,27)        174.2718         estimate D2E/DX2                !
 ! D170  D(38,25,26,31)        -67.0634         estimate D2E/DX2                !
 ! D171  D(38,25,26,64)         54.2646         estimate D2E/DX2                !
 ! D172  D(63,25,26,27)        -63.633          estimate D2E/DX2                !
 ! D173  D(63,25,26,31)         55.0317         estimate D2E/DX2                !
 ! D174  D(63,25,26,64)        176.3598         estimate D2E/DX2                !
 ! D175  D(24,25,38,82)       -175.3183         estimate D2E/DX2                !
 ! D176  D(26,25,38,82)         62.2332         estimate D2E/DX2                !
 ! D177  D(63,25,38,82)        -57.3825         estimate D2E/DX2                !
 ! D178  D(25,26,27,28)        -63.1127         estimate D2E/DX2                !
 ! D179  D(31,26,27,28)        179.9137         estimate D2E/DX2                !
 ! D180  D(64,26,27,28)         57.941          estimate D2E/DX2                !
 ! D181  D(25,26,31,32)        160.0887         estimate D2E/DX2                !
 ! D182  D(27,26,31,32)        -81.875          estimate D2E/DX2                !
 ! D183  D(64,26,31,32)         38.9237         estimate D2E/DX2                !
 ! D184  D(26,27,28,23)         66.6564         estimate D2E/DX2                !
 ! D185  D(26,27,28,29)       -169.1276         estimate D2E/DX2                !
 ! D186  D(26,27,28,65)        -52.281          estimate D2E/DX2                !
 ! D187  D(23,28,29,30)         56.3088         estimate D2E/DX2                !
 ! D188  D(23,28,29,66)        175.8892         estimate D2E/DX2                !
 ! D189  D(23,28,29,67)        -66.3703         estimate D2E/DX2                !
 ! D190  D(27,28,29,30)        -64.8525         estimate D2E/DX2                !
 ! D191  D(27,28,29,66)         54.7279         estimate D2E/DX2                !
 ! D192  D(27,28,29,67)        172.4685         estimate D2E/DX2                !
 ! D193  D(65,28,29,30)        176.4108         estimate D2E/DX2                !
 ! D194  D(65,28,29,66)        -64.0088         estimate D2E/DX2                !
 ! D195  D(65,28,29,67)         53.7318         estimate D2E/DX2                !
 ! D196  D(28,29,30,68)        -80.3443         estimate D2E/DX2                !
 ! D197  D(66,29,30,68)        159.5018         estimate D2E/DX2                !
 ! D198  D(67,29,30,68)         41.7082         estimate D2E/DX2                !
 ! D199  D(26,31,32,33)         69.115          estimate D2E/DX2                !
 ! D200  D(26,31,32,69)        -54.7743         estimate D2E/DX2                !
 ! D201  D(26,31,32,70)       -170.0915         estimate D2E/DX2                !
 ! D202  D(31,32,33,34)         51.0823         estimate D2E/DX2                !
 ! D203  D(31,32,33,71)        -70.3306         estimate D2E/DX2                !
 ! D204  D(31,32,33,72)        174.3474         estimate D2E/DX2                !
 ! D205  D(69,32,33,34)        174.3288         estimate D2E/DX2                !
 ! D206  D(69,32,33,71)         52.9159         estimate D2E/DX2                !
 ! D207  D(69,32,33,72)        -62.4061         estimate D2E/DX2                !
 ! D208  D(70,32,33,34)        -65.9723         estimate D2E/DX2                !
 ! D209  D(70,32,33,71)        172.6147         estimate D2E/DX2                !
 ! D210  D(70,32,33,72)         57.2928         estimate D2E/DX2                !
 ! D211  D(32,33,34,35)       -149.2975         estimate D2E/DX2                !
 ! D212  D(32,33,34,73)         86.7467         estimate D2E/DX2                !
 ! D213  D(32,33,34,74)        -28.4098         estimate D2E/DX2                !
 ! D214  D(71,33,34,35)        -28.1878         estimate D2E/DX2                !
 ! D215  D(71,33,34,73)       -152.1436         estimate D2E/DX2                !
 ! D216  D(71,33,34,74)         92.6999         estimate D2E/DX2                !
 ! D217  D(72,33,34,35)         89.2589         estimate D2E/DX2                !
 ! D218  D(72,33,34,73)        -34.6968         estimate D2E/DX2                !
 ! D219  D(72,33,34,74)       -149.8534         estimate D2E/DX2                !
 ! D220  D(33,34,35,36)        160.9231         estimate D2E/DX2                !
 ! D221  D(33,34,35,75)         39.5037         estimate D2E/DX2                !
 ! D222  D(33,34,35,76)        -77.264          estimate D2E/DX2                !
 ! D223  D(73,34,35,36)        -74.7669         estimate D2E/DX2                !
 ! D224  D(73,34,35,75)        163.8137         estimate D2E/DX2                !
 ! D225  D(73,34,35,76)         47.046          estimate D2E/DX2                !
 ! D226  D(74,34,35,36)         41.7817         estimate D2E/DX2                !
 ! D227  D(74,34,35,75)        -79.6377         estimate D2E/DX2                !
 ! D228  D(74,34,35,76)        163.5946         estimate D2E/DX2                !
 ! D229  D(34,35,36,37)        -65.8517         estimate D2E/DX2                !
 ! D230  D(34,35,36,77)         54.3699         estimate D2E/DX2                !
 ! D231  D(34,35,36,78)        175.0776         estimate D2E/DX2                !
 ! D232  D(75,35,36,37)         55.9555         estimate D2E/DX2                !
 ! D233  D(75,35,36,77)        176.1771         estimate D2E/DX2                !
 ! D234  D(75,35,36,78)        -63.1153         estimate D2E/DX2                !
 ! D235  D(76,35,36,37)        170.9431         estimate D2E/DX2                !
 ! D236  D(76,35,36,77)        -68.8353         estimate D2E/DX2                !
 ! D237  D(76,35,36,78)         51.8723         estimate D2E/DX2                !
 ! D238  D(35,36,37,79)        -62.9323         estimate D2E/DX2                !
 ! D239  D(35,36,37,80)        174.1323         estimate D2E/DX2                !
 ! D240  D(35,36,37,81)         54.7833         estimate D2E/DX2                !
 ! D241  D(77,36,37,79)        174.1934         estimate D2E/DX2                !
 ! D242  D(77,36,37,80)         51.258          estimate D2E/DX2                !
 ! D243  D(77,36,37,81)        -68.091          estimate D2E/DX2                !
 ! D244  D(78,36,37,79)         58.9023         estimate D2E/DX2                !
 ! D245  D(78,36,37,80)        -64.033          estimate D2E/DX2                !
 ! D246  D(78,36,37,81)        176.6179         estimate D2E/DX2                !
 --------------------------------------------------------------------------------
 Trust Radius=3.00D-01 FncErr=1.00D-07 GrdErr=1.00D-06
 Number of steps in this run=    504 maximum allowed number of steps=    504.
 GradGradGradGradGradGradGradGradGradGradGradGradGradGradGradGradGradGrad

 Leave Link  103 at Thu Mar 24 17:15:18 2016, MaxMem= 10737418240 cpu:         0.4
 (Enter /share/apps//g09/l202.exe)
 Stoichiometry    C23H44NO16(1+)
 Framework group  C1[X(C23H44NO16)]
 Deg. of freedom   246
 Full point group                 C1      NOp   1
 Largest Abelian subgroup         C1      NOp   1
 Largest concise Abelian subgroup C1      NOp   1
                         Standard orientation:                         
 ---------------------------------------------------------------------
 Center     Atomic      Atomic             Coordinates (Angstroms)
 Number     Number       Type             X           Y           Z
 ---------------------------------------------------------------------
      1          8           0        2.446411    1.411559    0.385844
      2          6           0        3.118438    0.219902    0.056988
      3          6           0        3.642970    0.287718   -1.368451
      4          6           0        4.580991    1.467400   -1.509294
      5          6           0        3.911753    2.748065   -1.049802
      6          6           0        3.272355    2.554572    0.320485
      7          6           0        2.430739    3.741942    0.743169
      8          8           0        1.300594    3.937155   -0.090152
      9          8           0        2.927503    3.146171   -1.987803
     10          8           0        4.967018    1.665206   -2.846987
     11          8           0        4.372441   -0.851960   -1.717948
     12          8           0        2.167627   -0.785650    0.163623
     13          6           0        2.527119   -1.975500    0.838365
     14          6           0        2.127120   -3.159883   -0.014874
     15          8           0        2.820840   -3.131781   -1.239211
     16          6           0        0.631453   -3.136351   -0.254790
     17          6           0       -0.126221   -3.063046    1.071146
     18          8           0        0.362351   -1.996842    1.878538
     19          6           0        1.753457   -2.067820    2.144916
     20          6           0        2.077473   -0.942511    3.104749
     21          8           0        3.470611   -0.961204    3.312412
     22          8           0       -1.495825   -2.908340    0.931847
     23          6           0       -1.971530   -1.816754    0.169278
     24          6           0       -2.806310   -2.325249   -0.989912
     25          6           0       -3.453024   -1.169763   -1.726457
     26          6           0       -4.201358   -0.254267   -0.774365
     27          8           0       -3.314735    0.164682    0.249417
     28          6           0       -2.851642   -0.915564    1.036947
     29          6           0       -2.142764   -0.351562    2.246619
     30          8           0       -0.971552    0.369527    1.917678
     31          8           0       -4.618319    0.833215   -1.502661
     32          6           0       -5.688392    1.605402   -0.963357
     33          6           0       -5.306135    2.378830    0.285820
     34          6           0       -4.035147    3.201717    0.097226
     35          6           0       -3.232835    3.364183    1.380990
     36          6           0       -1.790046    3.759558    1.149420
     37          7           0       -1.032243    2.683836    0.457927
     38          8           0       -4.291036   -1.733273   -2.699771
     39          8           0       -1.997375   -3.061563   -1.881435
     40          8           0        0.300651   -4.293504   -0.965049
     41          1           0        3.944573    0.044403    0.763098
     42          1           0        2.773955    0.434981   -2.023020
     43          1           0        5.460093    1.281265   -0.877104
     44          1           0        4.671194    3.534564   -0.960696
     45          1           0        4.097343    2.461302    1.043672
     46          1           0        3.056175    4.639820    0.751082
     47          1           0        2.059922    3.579112    1.756074
     48          1           0        1.622471    3.854455   -1.003928
     49          1           0        3.298316    2.992510   -2.863923
     50          1           0        5.213858    0.809683   -3.208917
     51          1           0        3.798619   -1.634325   -1.693445
     52          1           0        3.599584   -2.004758    1.040145
     53          1           0        2.382716   -4.075924    0.534334
     54          1           0        2.401413   -3.773865   -1.820144
     55          1           0        0.419171   -2.239364   -0.845100
     56          1           0       -0.000743   -4.008759    1.609905
     57          1           0        1.991367   -3.024171    2.628277
     58          1           0        1.756835    0.010447    2.667243
     59          1           0        1.520802   -1.103211    4.032409
     60          1           0        3.679954   -0.506405    4.127335
     61          1           0       -1.146281   -1.210991   -0.214626
     62          1           0       -3.593673   -2.973542   -0.582990
     63          1           0       -2.660359   -0.565719   -2.189280
     64          1           0       -5.058024   -0.778514   -0.318372
     65          1           0       -3.703307   -1.506550    1.406400
     66          1           0       -2.819194    0.331546    2.761476
     67          1           0       -1.899636   -1.169035    2.927006
     68          1           0       -0.274842   -0.293337    1.772352
     69          1           0       -6.543130    0.950901   -0.763166
     70          1           0       -5.965873    2.284066   -1.770676
     71          1           0       -5.163035    1.674176    1.107045
     72          1           0       -6.151677    3.012832    0.563798
     73          1           0       -4.269686    4.182637   -0.324059
     74          1           0       -3.432702    2.683707   -0.653097
     75          1           0       -3.250956    2.424574    1.938886
     76          1           0       -3.690688    4.115175    2.028290
     77          1           0       -1.708399    4.658472    0.537351
     78          1           0       -1.274690    3.949368    2.089985
     79          1           0       -0.980723    1.811000    1.032112
     80          1           0       -0.068395    3.026156    0.223784
     81          1           0       -1.500721    2.423868   -0.405930
     82          1           0       -4.661019   -1.027534   -3.234041
     83          1           0       -2.530429   -3.259222   -2.656954
     84          1           0       -0.562924   -4.135941   -1.373703
 ---------------------------------------------------------------------
 Rotational constants (GHZ):      0.1079717      0.0713085      0.0563539
 Leave Link  202 at Thu Mar 24 17:15:18 2016, MaxMem= 10737418240 cpu:         0.8
 (Enter /share/apps//g09/l301.exe)
 Standard basis: 6-311+G(d,p) (5D, 7F)
 Ernie: Thresh=  0.10000D-02 Tol=  0.10000D-05 Strict=F.
 There are  1184 symmetry adapted cartesian basis functions of A   symmetry.
 There are  1144 symmetry adapted basis functions of A   symmetry.
  1144 basis functions,  1792 primitive gaussians,  1184 cartesian basis functions
   158 alpha electrons      158 beta electrons
       nuclear repulsion energy      5884.7986066573 Hartrees.
 IExCor= 1009 DFT=T Ex+Corr=PBE1PBE ExCW=0 ScaHFX=  0.250000
 ScaDFX=  0.750000  0.750000  1.000000  1.000000 ScalE2=  1.000000  1.000000
 IRadAn=      0 IRanWt=     -1 IRanGd=            0 ICorTp=0 IEmpDi=131
 NAtoms=   84 NActive=   84 NUniq=   84 SFac= 1.00D+00 NAtFMM=   60 NAOKFM=T Big=T
 Integral buffers will be    131072 words long.
 Raffenetti 2 integral format.
 Two-electron integral symmetry is turned on.
 R6Disp:  Grimme-D3 Dispersion energy=       -0.0822247283 Hartrees.
 Nuclear repulsion after empirical dispersion term =     5884.7163819291 Hartrees.
 Leave Link  301 at Thu Mar 24 17:15:18 2016, MaxMem= 10737418240 cpu:         2.1
 (Enter /share/apps//g09/l302.exe)
 NPDir=0 NMtPBC=     1 NCelOv=     1 NCel=       1 NClECP=     1 NCelD=      1
         NCelK=      1 NCelE2=     1 NClLst=     1 CellRange=     0.0.
 One-electron integrals computed using PRISM.
 NBasis=  1144 RedAO= T EigKep=  1.43D-06  NBF=  1144
 NBsUse=  1144 1.00D-06 EigRej= -1.00D+00 NBFU=  1144
 Precomputing XC quadrature grid using
 IXCGrd= 4 IRadAn=           0 IRanWt=          -1 IRanGd=           0 AccXCQ= 0.00D+00.
 Generated NRdTot=       0 NPtTot=           0 NUsed=           0 NTot=          32
 NSgBfM=  1108  1114  1115  1115  1115 MxSgAt=    84 MxSgA2=    84.
 Leave Link  302 at Thu Mar 24 17:15:23 2016, MaxMem= 10737418240 cpu:        64.7
 (Enter /share/apps//g09/l303.exe)
 DipDrv:  MaxL=1.
 Leave Link  303 at Thu Mar 24 17:15:27 2016, MaxMem= 10737418240 cpu:        46.9
 (Enter /share/apps//g09/l401.exe)
 ExpMin= 4.38D-02 ExpMax= 8.59D+03 ExpMxC= 1.30D+03 IAcc=2 IRadAn=         4 AccDes= 0.00D+00
 Harris functional with IExCor= 1009 and IRadAn=       4 diagonalized for initial guess.
 HarFok:  IExCor= 1009 AccDes= 0.00D+00 IRadAn=         4 IDoV= 1 UseB2=F ITyADJ=14
 ICtDFT=  3500011 ScaDFX=  1.000000  1.000000  1.000000  1.000000
 FoFCou: FMM=F IPFlag=           0 FMFlag=      100000 FMFlg1=        2001
         NFxFlg=           0 DoJE=T BraDBF=F KetDBF=T FulRan=T
         wScrn=  0.000000 ICntrl=     500 IOpCl=  0 I1Cent=   200000004 NGrid=           0
         NMat0=    1 NMatS0=      1 NMatT0=    0 NMatD0=    1 NMtDS0=    0 NMtDT0=    0
 Petite list used in FoFCou.
 Harris En= -2159.74482478895    
 JPrj=0 DoOrth=F DoCkMO=F.
 Leave Link  401 at Thu Mar 24 17:15:41 2016, MaxMem= 10737418240 cpu:       229.6
 (Enter /share/apps//g09/l502.exe)
 Closed shell SCF:
 Using DIIS extrapolation, IDIIS=  1040.
 Integral symmetry usage will be decided dynamically.
 IVT=     4256630 IEndB=     4256630 NGot= 10737418240 MDV= 10734581291
 LenX= 10734581291 LenY= 10733178251
 Requested convergence on RMS density matrix=1.00D-08 within 128 cycles.
 Requested convergence on MAX density matrix=1.00D-06.
 Requested convergence on             energy=1.00D-06.
 No special actions if energy rises.
 Fock matrices will be formed incrementally for  20 cycles.

 Cycle   1  Pass 1  IDiag  1:
 FoFJK:  IHMeth= 1 ICntrl=       0 DoSepK=F KAlg= 0 I1Cent=   0 FoldK=F
 IRaf= 780000000 NMat=   1 IRICut=       1 DoRegI=T DoRafI=F ISym2E= 0.
 FoFCou: FMM=T IPFlag=           0 FMFlag=      100000 FMFlg1=        2001
         NFxFlg=           0 DoJE=F BraDBF=F KetDBF=F FulRan=T
         wScrn=  0.000000 ICntrl=       0 IOpCl=  0 I1Cent=           0 NGrid=           0
         NMat0=    1 NMatS0=      1 NMatT0=    0 NMatD0=    1 NMtDS0=    0 NMtDT0=    0
 Symmetry not used in FoFCou.
 FMM levels:  10  Number of levels for PrismC:   9
 E= -2158.68244175897    
 DIIS: error= 1.56D-02 at cycle   1 NSaved=   1.
 NSaved= 1 IEnMin= 1 EnMin= -2158.68244175897     IErMin= 1 ErrMin= 1.56D-02
 ErrMax= 1.56D-02  0.00D+00 EMaxC= 1.00D-01 BMatC= 1.06D+00 BMatP= 1.06D+00
 IDIUse=3 WtCom= 8.44D-01 WtEn= 1.56D-01
 Coeff-Com:  0.100D+01
 Coeff-En:   0.100D+01
 Coeff:      0.100D+01
 Gap=     0.271 Goal=   None    Shift=    0.000
 GapD=    0.271 DampG=1.000 DampE=0.500 DampFc=0.5000 IDamp=-1.
 Damping current iteration by 5.00D-01
 RMSDP=1.05D-02 MaxDP=2.63D+00              OVMax= 1.42D-01

 Cycle   2  Pass 1  IDiag  1:
 RMSU=  5.26D-03    CP:  9.93D-01
 E= -2158.98537129275     Delta-E=       -0.302929533782 Rises=F Damp=T
 DIIS: error= 3.23D-03 at cycle   2 NSaved=   2.
 NSaved= 2 IEnMin= 2 EnMin= -2158.98537129275     IErMin= 2 ErrMin= 3.23D-03
 ErrMax= 3.23D-03  0.00D+00 EMaxC= 1.00D-01 BMatC= 7.84D-02 BMatP= 1.06D+00
 IDIUse=3 WtCom= 9.68D-01 WtEn= 3.23D-02
 Coeff-Com:  0.475D-01 0.952D+00
 Coeff-En:   0.136D+00 0.864D+00
 Coeff:      0.504D-01 0.950D+00
 Gap=     0.278 Goal=   None    Shift=    0.000
 RMSDP=4.50D-03 MaxDP=1.37D+00 DE=-3.03D-01 OVMax= 8.77D-02

 Cycle   3  Pass 1  IDiag  1:
 RMSU=  2.91D-03    CP:  9.07D-01  8.71D-01
 E= -2159.36815283048     Delta-E=       -0.382781537725 Rises=F Damp=F
 DIIS: error= 3.41D-03 at cycle   3 NSaved=   3.
 NSaved= 3 IEnMin= 3 EnMin= -2159.36815283048     IErMin= 2 ErrMin= 3.23D-03
 ErrMax= 3.41D-03  0.00D+00 EMaxC= 1.00D-01 BMatC= 4.15D-02 BMatP= 7.84D-02
 IDIUse=3 WtCom= 9.66D-01 WtEn= 3.41D-02
 Coeff-Com: -0.684D-01 0.402D+00 0.666D+00
 Coeff-En:   0.000D+00 0.000D+00 0.100D+01
 Coeff:     -0.660D-01 0.388D+00 0.678D+00
 Gap=     0.266 Goal=   None    Shift=    0.000
 RMSDP=1.55D-03 MaxDP=3.60D-01 DE=-3.83D-01 OVMax= 1.59D-02

 Cycle   4  Pass 1  IDiag  1:
 RMSU=  1.19D-03    CP:  9.23D-01  1.01D+00  8.99D-01
 E= -2159.39321907485     Delta-E=       -0.025066244366 Rises=F Damp=F
 DIIS: error= 9.18D-04 at cycle   4 NSaved=   4.
 NSaved= 4 IEnMin= 4 EnMin= -2159.39321907485     IErMin= 4 ErrMin= 9.18D-04
 ErrMax= 9.18D-04  0.00D+00 EMaxC= 1.00D-01 BMatC= 5.90D-03 BMatP= 4.15D-02
 IDIUse=3 WtCom= 9.91D-01 WtEn= 9.18D-03
 Coeff-Com: -0.363D-01 0.122D+00 0.347D+00 0.566D+00
 Coeff-En:   0.000D+00 0.000D+00 0.843D-01 0.916D+00
 Coeff:     -0.360D-01 0.121D+00 0.345D+00 0.570D+00
 Gap=     0.259 Goal=   None    Shift=    0.000
 RMSDP=1.09D-03 MaxDP=3.46D-01 DE=-2.51D-02 OVMax= 5.50D-03

 Cycle   5  Pass 1  IDiag  1:
 RMSU=  3.07D-04    CP:  9.00D-01  9.62D-01  8.83D-01  5.94D-01
 E= -2159.39815161929     Delta-E=       -0.004932544442 Rises=F Damp=F
 DIIS: error= 2.74D-04 at cycle   5 NSaved=   5.
 NSaved= 5 IEnMin= 5 EnMin= -2159.39815161929     IErMin= 5 ErrMin= 2.74D-04
 ErrMax= 2.74D-04  0.00D+00 EMaxC= 1.00D-01 BMatC= 2.35D-04 BMatP= 5.90D-03
 IDIUse=3 WtCom= 9.97D-01 WtEn= 2.74D-03
 Coeff-Com: -0.113D-01 0.262D-01 0.103D+00 0.242D+00 0.641D+00
 Coeff-En:   0.000D+00 0.000D+00 0.000D+00 0.000D+00 0.100D+01
 Coeff:     -0.112D-01 0.261D-01 0.102D+00 0.241D+00 0.642D+00
 Gap=     0.258 Goal=   None    Shift=    0.000
 RMSDP=1.41D-04 MaxDP=4.20D-02 DE=-4.93D-03 OVMax= 1.35D-03

 Cycle   6  Pass 1  IDiag  1:
 RMSU=  7.60D-05    CP:  9.02D-01  9.70D-01  8.97D-01  6.08D-01  7.64D-01
 E= -2159.39831483683     Delta-E=       -0.000163217544 Rises=F Damp=F
 DIIS: error= 9.27D-05 at cycle   6 NSaved=   6.
 NSaved= 6 IEnMin= 6 EnMin= -2159.39831483683     IErMin= 6 ErrMin= 9.27D-05
 ErrMax= 9.27D-05  0.00D+00 EMaxC= 1.00D-01 BMatC= 2.69D-05 BMatP= 2.35D-04
 IDIUse=1 WtCom= 1.00D+00 WtEn= 0.00D+00
 Coeff-Com: -0.399D-02 0.720D-02 0.357D-01 0.983D-01 0.341D+00 0.522D+00
 Coeff:     -0.399D-02 0.720D-02 0.357D-01 0.983D-01 0.341D+00 0.522D+00
 Gap=     0.258 Goal=   None    Shift=    0.000
 RMSDP=3.42D-05 MaxDP=1.17D-02 DE=-1.63D-04 OVMax= 5.14D-04

 Cycle   7  Pass 1  IDiag  1:
 RMSU=  1.50D-05    CP:  9.03D-01  9.69D-01  8.99D-01  6.18D-01  7.80D-01
                    CP:  7.05D-01
 E= -2159.39833360231     Delta-E=       -0.000018765478 Rises=F Damp=F
 DIIS: error= 2.31D-05 at cycle   7 NSaved=   7.
 NSaved= 7 IEnMin= 7 EnMin= -2159.39833360231     IErMin= 7 ErrMin= 2.31D-05
 ErrMax= 2.31D-05  0.00D+00 EMaxC= 1.00D-01 BMatC= 1.60D-06 BMatP= 2.69D-05
 IDIUse=1 WtCom= 1.00D+00 WtEn= 0.00D+00
 Coeff-Com: -0.101D-02 0.144D-02 0.942D-02 0.299D-01 0.119D+00 0.256D+00
 Coeff-Com:  0.586D+00
 Coeff:     -0.101D-02 0.144D-02 0.942D-02 0.299D-01 0.119D+00 0.256D+00
 Coeff:      0.586D+00
 Gap=     0.258 Goal=   None    Shift=    0.000
 RMSDP=7.43D-06 MaxDP=1.38D-03 DE=-1.88D-05 OVMax= 1.34D-04

 Cycle   8  Pass 1  IDiag  1:
 RMSU=  6.01D-06    CP:  9.03D-01  9.70D-01  8.98D-01  6.20D-01  7.85D-01
                    CP:  6.99D-01  8.60D-01
 E= -2159.39833464801     Delta-E=       -0.000001045702 Rises=F Damp=F
 DIIS: error= 6.33D-06 at cycle   8 NSaved=   8.
 NSaved= 8 IEnMin= 8 EnMin= -2159.39833464801     IErMin= 8 ErrMin= 6.33D-06
 ErrMax= 6.33D-06  0.00D+00 EMaxC= 1.00D-01 BMatC= 1.27D-07 BMatP= 1.60D-06
 IDIUse=1 WtCom= 1.00D+00 WtEn= 0.00D+00
 Coeff-Com:  0.159D-04-0.205D-03 0.841D-04 0.198D-02 0.115D-01 0.482D-01
 Coeff-Com:  0.258D+00 0.680D+00
 Coeff:      0.159D-04-0.205D-03 0.841D-04 0.198D-02 0.115D-01 0.482D-01
 Coeff:      0.258D+00 0.680D+00
 Gap=     0.258 Goal=   None    Shift=    0.000
 RMSDP=3.45D-06 MaxDP=1.14D-03 DE=-1.05D-06 OVMax= 3.73D-05

 Cycle   9  Pass 1  IDiag  1:
 RMSU=  1.99D-06    CP:  9.03D-01  9.69D-01  8.98D-01  6.19D-01  7.88D-01
                    CP:  7.02D-01  9.06D-01  8.87D-01
 E= -2159.39833474160     Delta-E=       -0.000000093590 Rises=F Damp=F
 DIIS: error= 1.60D-06 at cycle   9 NSaved=   9.
 NSaved= 9 IEnMin= 9 EnMin= -2159.39833474160     IErMin= 9 ErrMin= 1.60D-06
 ErrMax= 1.60D-06  0.00D+00 EMaxC= 1.00D-01 BMatC= 1.07D-08 BMatP= 1.27D-07
 IDIUse=1 WtCom= 1.00D+00 WtEn= 0.00D+00
 Coeff-Com:  0.671D-04-0.178D-03-0.551D-03-0.917D-03-0.223D-02 0.508D-02
 Coeff-Com:  0.805D-01 0.314D+00 0.604D+00
 Coeff:      0.671D-04-0.178D-03-0.551D-03-0.917D-03-0.223D-02 0.508D-02
 Coeff:      0.805D-01 0.314D+00 0.604D+00
 Gap=     0.258 Goal=   None    Shift=    0.000
 RMSDP=9.55D-07 MaxDP=2.38D-04 DE=-9.36D-08 OVMax= 9.47D-06

 Cycle  10  Pass 1  IDiag  1:
 RMSU=  6.17D-07    CP:  9.03D-01  9.69D-01  8.98D-01  6.19D-01  7.87D-01
                    CP:  7.09D-01  9.09D-01  8.84D-01  7.98D-01
 E= -2159.39833474973     Delta-E=       -0.000000008130 Rises=F Damp=F
 DIIS: error= 5.71D-07 at cycle  10 NSaved=  10.
 NSaved=10 IEnMin=10 EnMin= -2159.39833474973     IErMin=10 ErrMin= 5.71D-07
 ErrMax= 5.71D-07  0.00D+00 EMaxC= 1.00D-01 BMatC= 1.22D-09 BMatP= 1.07D-08
 IDIUse=1 WtCom= 1.00D+00 WtEn= 0.00D+00
 Coeff-Com:  0.284D-04-0.655D-04-0.272D-03-0.576D-03-0.195D-02-0.131D-02
 Coeff-Com:  0.195D-01 0.995D-01 0.308D+00 0.577D+00
 Coeff:      0.284D-04-0.655D-04-0.272D-03-0.576D-03-0.195D-02-0.131D-02
 Coeff:      0.195D-01 0.995D-01 0.308D+00 0.577D+00
 Gap=     0.258 Goal=   None    Shift=    0.000
 RMSDP=3.65D-07 MaxDP=8.18D-05 DE=-8.13D-09 OVMax= 3.30D-06

 Cycle  11  Pass 1  IDiag  1:
 RMSU=  1.35D-07    CP:  9.03D-01  9.69D-01  8.98D-01  6.19D-01  7.88D-01
                    CP:  7.07D-01  9.14D-01  8.98D-01  8.13D-01  6.44D-01
 E= -2159.39833475061     Delta-E=       -0.000000000878 Rises=F Damp=F
 DIIS: error= 1.82D-07 at cycle  11 NSaved=  11.
 NSaved=11 IEnMin=11 EnMin= -2159.39833475061     IErMin=11 ErrMin= 1.82D-07
 ErrMax= 1.82D-07  0.00D+00 EMaxC= 1.00D-01 BMatC= 1.09D-10 BMatP= 1.22D-09
 IDIUse=1 WtCom= 1.00D+00 WtEn= 0.00D+00
 Coeff-Com:  0.784D-05-0.169D-04-0.913D-04-0.205D-03-0.755D-03-0.105D-02
 Coeff-Com:  0.310D-02 0.234D-01 0.105D+00 0.292D+00 0.578D+00
 Coeff:      0.784D-05-0.169D-04-0.913D-04-0.205D-03-0.755D-03-0.105D-02
 Coeff:      0.310D-02 0.234D-01 0.105D+00 0.292D+00 0.578D+00
 Gap=     0.258 Goal=   None    Shift=    0.000
 RMSDP=6.42D-08 MaxDP=2.39D-05 DE=-8.78D-10 OVMax= 8.38D-07

 Cycle  12  Pass 1  IDiag  1:
 RMSU=  3.62D-08    CP:  9.03D-01  9.69D-01  8.98D-01  6.19D-01  7.87D-01
                    CP:  7.07D-01  9.15D-01  8.98D-01  8.22D-01  6.71D-01
                    CP:  7.78D-01
 E= -2159.39833475060     Delta-E=        0.000000000007 Rises=F Damp=F
 DIIS: error= 4.27D-08 at cycle  12 NSaved=  12.
 NSaved=12 IEnMin=11 EnMin= -2159.39833475061     IErMin=12 ErrMin= 4.27D-08
 ErrMax= 4.27D-08  0.00D+00 EMaxC= 1.00D-01 BMatC= 6.21D-12 BMatP= 1.09D-10
 IDIUse=1 WtCom= 1.00D+00 WtEn= 0.00D+00
 Coeff-Com:  0.134D-06-0.287D-07-0.107D-04-0.262D-04-0.114D-03-0.292D-03
 Coeff-Com: -0.770D-03-0.946D-03 0.102D-01 0.615D-01 0.237D+00 0.694D+00
 Coeff:      0.134D-06-0.287D-07-0.107D-04-0.262D-04-0.114D-03-0.292D-03
 Coeff:     -0.770D-03-0.946D-03 0.102D-01 0.615D-01 0.237D+00 0.694D+00
 Gap=     0.258 Goal=   None    Shift=    0.000
 RMSDP=1.77D-08 MaxDP=4.08D-06 DE= 7.28D-12 OVMax= 2.50D-07

 Cycle  13  Pass 1  IDiag  1:
 RMSU=  1.25D-08    CP:  9.03D-01  9.69D-01  8.98D-01  6.19D-01  7.87D-01
                    CP:  7.07D-01  9.15D-01  8.98D-01  8.23D-01  6.78D-01
                    CP:  7.57D-01  9.01D-01
 E= -2159.39833475052     Delta-E=        0.000000000085 Rises=F Damp=F
 DIIS: error= 1.46D-08 at cycle  13 NSaved=  13.
 NSaved=13 IEnMin=11 EnMin= -2159.39833475061     IErMin=13 ErrMin= 1.46D-08
 ErrMax= 1.46D-08  0.00D+00 EMaxC= 1.00D-01 BMatC= 5.89D-13 BMatP= 6.21D-12
 IDIUse=1 WtCom= 1.00D+00 WtEn= 0.00D+00
 Coeff-Com: -0.371D-06 0.912D-06 0.745D-07-0.537D-06-0.921D-05-0.711D-04
 Coeff-Com: -0.532D-03-0.177D-02-0.152D-02 0.113D-01 0.748D-01 0.326D+00
 Coeff-Com:  0.592D+00
 Coeff:     -0.371D-06 0.912D-06 0.745D-07-0.537D-06-0.921D-05-0.711D-04
 Coeff:     -0.532D-03-0.177D-02-0.152D-02 0.113D-01 0.748D-01 0.326D+00
 Coeff:      0.592D+00
 Gap=     0.258 Goal=   None    Shift=    0.000
 RMSDP=7.19D-09 MaxDP=1.94D-06 DE= 8.55D-11 OVMax= 9.33D-08

 Cycle  14  Pass 1  IDiag  1:
 RMSU=  4.87D-09    CP:  9.03D-01  9.69D-01  8.98D-01  6.19D-01  7.87D-01
[...]
 0007762,-0.00026339,-0.00022521,-0.00000175,0.00005992,0.00002820,-0.0
 0001715,-0.00002564,-0.00000612,0.00000374,0.00001244,-0.00000402,-0.0
 0001828,-0.00003697,-0.00001207,0.00003546,0.00000846,0.00000104,-0.00
 075650,0.00065399,0.00106300,-0.23213519,0.14449495,-0.20961706,0.0002
 1843,-0.00136963,-0.00005760,0.00000811,-0.00000729,0.00000532,-0.0000
 0519,-0.00001838,0.00001151,0.00000877,-0.00000406,-0.00000013,0.00001
 033,-0.00000164,0.00000153,0.00000610,-0.00000863,0.00000191,0.0000095
 8,-0.00000392,-0.00000205,-0.00000405,-0.00000044,0.00000209,-0.000026
 37,0.00000022,0.00000144,-0.00002828,0.00000523,0.00000938,-0.00001790
 ,0.00001807,0.00001415,-0.00002025,0.00003270,-0.00000558,0.00000570,-
 0.00000309,-0.00000377,-0.00000948,-0.00000265,0.00001939,0.00001463,0
 .00010859,0.00000202,0.00004146,0.00002569,-0.00008777,0.00002595,-0.0
 0005369,0.00000610,-0.00000071,-0.00001466,0.00000201,-0.00000178,-0.0
 0000744,0.00000193,0.00000093,-0.00000068,0.00000315,-0.00000342,0.000
 01296,-0.00001108,0.00032217,-0.00004135,0.00011603,0.00080860,0.00058
 232,0.00144684,-0.00075148,-0.00048205,0.00005776,0.00005804,0.0001614
 4,0.00021922,-0.00001715,-0.00005239,-0.00004137,-0.00003914,0.0000486
 9,-0.00002433,0.00001788,-0.00001302,0.00000279,-0.00002592,0.00002545
 ,-0.00001752,-0.00001015,0.00001477,0.00004083,0.00002061,0.00005821,0
 .00001820,-0.00000154,-0.00001880,-0.00001782,0.00002666,0.00001488,0.
 00002341,0.00001016,0.00000865,0.00000384,-0.00003032,0.00000287,0.000
 01231,-0.00000688,-0.00000129,-0.00001257,0.00000927,0.00000463,0.0000
 0759,-0.00000295,0.00000436,-0.00000238,0.00000675,-0.00000081,0.00000
 512,-0.00001682,0.00001695,-0.00002620,-0.00006565,0.00002147,0.000022
 24,-0.00005765,-0.00002263,-0.00002894,-0.00027431,-0.00030942,-0.0000
 6335,0.23807432,-0.00005646,-0.00006964,-0.00000776,0.00009811,0.00005
 797,-0.00000845,0.00002121,0.00004912,0.00001311,0.00001200,0.00000633
 ,-0.00000175,-0.00001247,0.00003448,-0.00001104,0.00003663,0.00000569,
 -0.00000508,-0.00002403,0.00005233,-0.00001907,0.00005200,-0.00006736,
 -0.00000586,0.00000480,-0.00005387,0.00000568,-0.00001788,-0.00001829,
 0.00000070,-0.00007463,-0.00005192,-0.00001079,-0.00009165,-0.00004060
 ,0.00002815,0.00003413,0.00007838,-0.00002170,-0.00011756,-0.00004707,
 0.00006923,-0.00005309,-0.00000048,-0.00009632,-0.00012858,0.00037232,
 -0.00014880,-0.00007818,0.00003570,-0.00015143,-0.00011538,-0.00002059
 ,-0.00005577,0.00001508,-0.00003240,0.00000019,0.00002291,0.00000488,0
 .00000012,-0.00002714,0.00000162,-0.00000413,0.00044278,0.00020275,0.0
 0048440,-0.00101976,-0.00489703,-0.00364623,-0.02066873,0.01116198,-0.
 02019004,-0.00523298,0.00047354,-0.00439108,-0.00035533,0.00014857,-0.
 00074169,0.00088888,-0.00061697,0.00124552,-0.00095679,0.00190281,-0.0
 0129772,0.00006094,-0.00062609,-0.00025627,-0.00010261,-0.00006305,0.0
 0008759,0.00039008,0.00015496,0.00059353,-0.00010348,-0.00035555,-0.00
 024475,0.00001133,0.00006177,0.00001162,-0.00001025,-0.00002200,0.0000
 2119,0.00001395,0.00003132,-0.00003142,0.00000215,0.00001257,0.0000356
 5,0.00000700,-0.00008203,0.00000265,0.00152668,0.00167819,0.00112377,0
 .16967497,-0.14236754,0.13766630,-0.00019032,-0.00220334,-0.00047104,-
 0.00000285,-0.00000468,0.00000027,0.00000716,0.00000092,0.00000121,-0.
 00000011,-0.00000232,-0.00000007,-0.00000101,-0.00000566,0.00000365,-0
 .00000235,-0.00000333,0.00000154,0.00000440,-0.00000788,0.00000151,0.0
 0000166,0.00000044,0.00000057,-0.00000635,0.00002819,0.00001319,0.0000
 0234,0.00002057,0.00000096,0.00001487,0.00000571,-0.00000217,0.0000740
 9,0.00000865,-0.00000719,-0.00000694,-0.00000907,0.00000406,0.00004679
 ,-0.00002096,-0.00001780,0.00008113,-0.00005537,0.00008067,-0.00018773
 ,-0.00002754,0.00008978,0.00000192,-0.00000078,0.00003204,-0.00000365,
 0.00000112,0.00000625,-0.00000217,-0.00000223,0.00000053,-0.00000193,0
 .00000114,-0.00000211,0.00000704,0.00000260,0.00000050,0.00002812,-0.0
 0006364,0.00021127,0.00047958,-0.00015061,-0.00090234,0.00024915,-0.00
 027118,0.00020476,0.00002797,0.00005972,0.00003770,-0.00002022,0.00000
 529,0.00006843,-0.00018077,0.00004628,-0.00016075,0.00005160,-0.000020
 43,0.00003715,0.00004365,0.00003397,0.00003076,0.00000571,0.00001660,0
 .00000435,-0.00000193,0.00002398,0.00000504,0.00000026,-0.00001623,-0.
 00000021,0.00003111,0.00000740,0.00002438,0.00001105,0.00000222,0.0000
 0544,-0.00004849,0.00000458,-0.00000312,-0.00001186,0.00000246,-0.0000
 0385,0.00001107,-0.00000401,0.00000974,-0.00001086,-0.00000005,-0.0000
 0479,0.00001548,-0.00001007,0.00000069,0.00006525,0.00013197,-0.000087
 99,-0.00006055,0.00004092,0.00003681,-0.00006658,0.00003176,-0.0000187
 9,0.00065589,0.00007627,0.00128429,-0.14789292,0.13369547,0.00009835,0
 .00004186,-0.00004761,-0.00020331,-0.00003396,0.00011949,0.00003920,-0
 .00002333,0.00002441,-0.00002009,0.00000897,0.00005152,0.00001430,-0.0
 0003217,0.00002580,-0.00006681,-0.00000695,0.00003350,0.00000212,-0.00
 000270,0.00000391,0.00003334,0.00000199,-0.00004606,-0.00001889,0.0000
 2832,-0.00005950,-0.00000014,0.00000467,-0.00008703,0.00002835,0.00002
 146,-0.00009207,0.00024325,0.00004398,-0.00011891,-0.00008983,-0.00010
 330,-0.00000873,-0.00017125,0.00006608,0.00038200,0.00010120,-0.000081
 37,-0.00030204,0.00011044,-0.00013025,-0.00027118,-0.00039546,0.000277
 05,-0.00022354,0.00036457,-0.00012967,0.00013185,-0.00010178,0.0001609
 6,0.00001133,-0.00006096,0.00001207,-0.00001954,0.00008639,-0.00004625
 ,0.00000895,0.00053572,-0.00046952,0.00068026,0.00064600,-0.00403728,-
 0.00366073,-0.02414137,0.01132978,-0.02320023,-0.00051435,-0.00006964,
 0.00244786,-0.00053114,0.00012198,-0.00058239,0.00018589,0.00002213,0.
 00003775,-0.00130629,0.00085905,-0.00037814,-0.00001932,-0.00043069,-0
 .00026323,0.00014227,0.00008186,0.00009206,0.00030186,0.00063408,0.000
 10691,0.00004177,-0.00015790,-0.00011763,-0.00000258,0.00002785,0.0000
 2254,-0.00000382,-0.00000066,0.00000903,-0.00000329,-0.00000384,-0.000
 00043,-0.00001341,-0.00001296,-0.00000248,0.00006062,0.00002002,-0.000
 04265,0.00002291,0.00014342,-0.00181703,-0.18981573,0.10198668,-0.1959
 6540,0.00065046,-0.00105608,-0.00001502,0.00001499,-0.00000135,-0.0000
 0831,0.00000076,0.00001040,0.00000753,-0.00000495,0.00000719,-0.000004
 69,0.00000030,0.00000580,-0.00000592,0.00000519,-0.00000237,-0.0000027
 9,0.00000604,0.00000293,-0.00000007,-0.00000477,-0.00000259,-0.0000067
 4,0.00000312,-0.00000025,0.00004025,0.00001821,-0.00001351,0.00002452,
 0.00000957,-0.00000805,0.00002978,-0.00006178,-0.00002318,0.00009257,0
 .00003494,0.00001037,-0.00000108,0.00005832,-0.00006059,-0.00003412,-0
 .00000462,0.00001676,0.00018055,-0.00033060,0.00004574,0.00012356,-0.0
 0000339,0.00000279,0.00003694,0.00000299,-0.00001228,-0.00000891,-0.00
 000072,-0.00000116,0.00000423,0.00000101,-0.00000048,-0.00000235,-0.00
 001258,0.00000549,-0.00000370,0.00012548,-0.00010261,0.00021392,0.0000
 6980,0.00082730,0.00004306,0.00026272,0.00005226,0.00001598,0.00001837
 ,-0.00005798,-0.00008977,0.00004103,0.00004362,-0.00003141,-0.00007791
 ,0.00006081,-0.00007028,0.00000075,-0.00000434,-0.00001466,-0.00007694
 ,-0.00005397,-0.00003606,0.00000081,-0.00000576,0.00001930,0.00001716,
 0.00004499,0.00001208,-0.00000570,-0.00000350,-0.00002190,0.00001752,0
 .00000717,0.00001152,0.00001159,0.00001220,0.00000333,-0.00002150,-0.0
 0000973,0.00000848,-0.00000194,0.00000256,-0.00001382,0.00000411,0.000
 00299,0.00000205,0.00000276,0.00000663,-0.00000086,0.00000051,-0.00000
 371,0.00000200,-0.00007648,-0.00006091,0.00003829,-0.00005724,0.000017
 29,0.00004795,-0.00003159,-0.00001185,0.00003266,0.00046912,0.00034776
 ,0.00053081,0.21371336,-0.11268766,0.22171918,0.00022545,0.00013941,0.
 00002385,-0.00041607,-0.00017088,0.00009879,-0.00002861,-0.00005488,-0
 .00005023,-0.00006234,0.00000024,0.00006753,0.00000605,-0.00004808,0.0
 0000298,-0.00014754,-0.00001058,0.00002904,0.00000911,-0.00005280,-0.0
 0000067,-0.00000477,0.00007786,0.00001207,0.00003545,0.00007354,-0.000
 02225,0.00007130,0.00000822,-0.00008654,0.00026502,0.00007423,-0.00004
 941,0.00080805,-0.00005771,0.00003053,-0.00081453,0.00195059,0.0003553
 1,-0.00646669,-0.00262211,-0.00322414,0.00106020,-0.00050314,-0.000386
 10,-0.02883989,0.03333903,-0.00929775,0.00019779,-0.00059793,-0.001776
 69,0.00078821,0.00017152,0.00100948,-0.00018842,0.00036934,0.00015275,
 -0.00011517,0.00003624,-0.00005072,0.00011117,-0.00007171,0.00002949,-
 0.00016201,0.00088074,0.00027826,0.00031676,-0.00101020,-0.00018252,0.
 00026309,0.00039244,0.00229851,-0.00006470,-0.00044225,-0.00065152,0.0
 0039393,-0.00019125,0.00040706,-0.00020814,0.00032804,-0.00016226,-0.0
 0027954,-0.00012775,-0.00002303,0.00012639,-0.00011169,-0.00008658,-0.
 00005071,0.00027343,0.00011720,-0.00014201,-0.00015802,-0.00014055,0.0
 0001181,0.00004442,0.00005980,-0.00000120,-0.00001455,-0.00000611,-0.0
 0000198,-0.00000218,-0.00000692,0.00000089,-0.00000843,0.00001372,-0.0
 0001791,-0.00004683,-0.00004260,0.00000791,0.00008260,0.00001656,-0.00
 018621,0.00006555,-0.00010773,-0.00519158,-0.00210891,-0.00261053,-0.1
 3235885,0.15355486,-0.04295535,0.00008469,-0.00001811,-0.00000693,-0.0
 0001912,-0.00001807,0.00002818,0.00000843,0.00000164,-0.00000361,0.000
 01606,0.00001321,-0.00000698,0.00001488,-0.00000588,-0.00000199,0.0000
 0596,0.00001264,-0.00000378,-0.00000803,-0.00000197,0.00000138,-0.0000
 1851,-0.00004113,-0.00001006,-0.00002391,-0.00003008,0.00002063,-0.000
 04135,0.00000685,0.00004505,-0.00036307,-0.00001152,0.00013161,-0.0003
 8946,-0.00018903,-0.00025725,0.00020429,-0.00017512,-0.00014918,-0.000
 47964,0.00048650,0.00058490,0.00143126,0.00098631,0.00117010,-0.000014
 72,-0.00001590,0.00009977,0.00001241,-0.00000996,-0.00004555,0.0000111
 8,-0.00000995,-0.00000656,0.00000171,-0.00000920,0.00000995,-0.0000130
 3,0.00000620,-0.00002918,-0.00029717,-0.00021792,-0.00010390,0.0000229
 6,0.00023872,0.00004136,-0.00005146,-0.00000153,0.00003236,-0.00003143
 ,0.00000827,-0.00000761,0.00001066,0.00009515,0.00010131,-0.00000486,0
 .00003287,0.00000342,-0.00001057,-0.00001848,-0.00004128,-0.00011893,-
 0.00029665,-0.00010271,-0.00000966,-0.00000055,-0.00000028,-0.00000090
 ,-0.00001355,-0.00000696,0.00000414,-0.00000061,-0.00000177,-0.0000085
 0,0.00000454,-0.00000517,-0.00000363,0.00000212,-0.00000226,0.00001641
 ,0.00000250,0.00000951,0.00000403,-0.00000283,-0.00000458,-0.00000371,
 0.00000658,-0.00000022,0.00000593,0.00000310,0.00000414,-0.00000634,0.
 00000581,0.,-0.00004426,-0.00009763,0.00003674,0.00002647,-0.00004438,
 -0.00003035,0.00002758,-0.00004171,-0.00000399,-0.00000130,0.00003391,
 -0.00000705,0.00032865,0.00271366,-0.00036701,0.17077615,-0.00043408,-
 0.00047689,-0.00002233,0.00089402,0.00042371,-0.00024167,0.00003583,0.
 00028929,0.00002814,0.00009760,0.00000333,-0.00007509,-0.00005200,0.00
 015050,-0.00003951,0.00024453,0.00001162,-0.00006205,-0.00009516,0.000
 20805,-0.00003927,0.00019370,-0.00025927,-0.00004920,0.00000538,-0.000
 21564,0.00004233,-0.00010433,-0.00006780,0.00012933,-0.00048017,-0.000
 30547,0.00014812,-0.00099830,-0.00048889,0.00027752,-0.00008386,0.0017
 1377,0.00026216,-0.00301659,-0.00130674,-0.00179461,-0.00092039,0.0003
 6212,0.00039948,-0.00372290,0.01212484,-0.00195301,-0.00281235,0.00391
 736,0.00204871,-0.00101314,-0.00158566,-0.00210314,0.00021652,-0.00017
 877,0.00047041,0.00021760,0.00005125,0.00000515,-0.00017923,-0.0000055
 1,-0.00010987,0.00125343,-0.00388614,0.00030609,-0.00100430,0.00189355
 ,-0.00115575,-0.00282609,-0.00372964,-0.00945222,0.00022912,0.00089659
 ,0.00230500,-0.00114896,-0.00013282,-0.00148862,0.00057438,-0.00038974
 ,0.00053630,0.00042396,-0.00050359,0.00006655,-0.00057610,0.00065401,0
 .00017002,0.00053746,-0.00079679,-0.00012165,0.00061525,0.00134736,0.0
 0055647,-0.00001134,-0.00053193,-0.00042550,-0.00000682,0.00007717,0.0
 0006795,-0.00001267,-0.00002537,0.00000909,-0.00001658,0.00001644,-0.0
 0001494,-0.00001431,0.00002456,0.00004374,0.00014770,-0.00011054,-0.00
 009978,0.00011538,0.00089702,0.00016163,0.00126481,0.00226056,0.003807
 52,0.19953779,-0.38087799,0.06416102,-0.00003845,-0.00002339,0.0000270
 8,0.00002011,-0.00002570,0.00000254,0.00001009,-0.00001473,0.00000232,
 -0.00001523,-0.00003113,0.00001752,-0.00001396,-0.00000355,0.00000802,
 0.00000944,-0.00004117,0.00000363,0.00000666,0.00000479,-0.00000280,-0
 .00000686,0.00009783,0.00005337,0.00001046,0.00007170,-0.00001883,0.00
 005746,0.00002179,-0.00006637,0.00058860,0.00013300,-0.00030702,-0.000
 49037,-0.00015839,-0.00013602,0.00019250,0.00000603,-0.00014348,0.0007
 8655,-0.00083892,-0.00049084,-0.00321776,-0.00049038,-0.00034821,0.000
 14987,-0.00026761,0.00024356,0.00000180,-0.00004548,0.00004712,-0.0000
 5674,-0.00001764,0.00003381,-0.00004997,0.00001444,-0.00006852,0.00004
 278,-0.00001955,0.00000508,-0.00004338,0.00011018,0.00006932,0.0000124
 3,0.00077359,0.00109790,-0.00001767,-0.00016237,-0.00002417,0.00008338
 ,0.00004865,0.00005868,-0.00001144,-0.00002146,-0.00007208,0.00015587,
 -0.00006906,0.00006523,0.00002776,0.00001388,0.00006252,0.00008809,0.0
 0094287,0.00004862,0.00000910,0.00001584,0.00004905,0.00002399,0.00009
 789,0.00002737,-0.00000440,-0.00003261,-0.00004770,0.00005839,0.000028
 81,0.00003103,0.00002842,0.00002080,0.00000737,-0.00008505,-0.00000772
 ,0.00001315,-0.00001989,0.00000040,-0.00003235,0.00002779,0.00000354,0
 .00001021,-0.00001060,0.00001096,-0.00001293,0.00001899,-0.00001424,0.
 00001610,-0.00009668,0.00009814,-0.00003002,-0.00026385,0.00017364,0.0
 0016673,-0.00016736,0.00001567,0.00001082,0.00011261,-0.00020226,0.000
 18467,0.00185102,0.00153634,0.00252899,-0.18683928,0.36679864,0.000070
 13,0.00004876,-0.00006363,-0.00017166,-0.00003430,0.00010795,0.0000517
 6,-0.00007529,0.00003581,-0.00001003,0.00001814,0.00003847,0.00001927,
 -0.00003261,0.00002904,-0.00005263,-0.00001018,0.00003349,0.00000989,-
 0.00001462,0.00001435,0.00000924,0.00001231,-0.00004352,-0.00002838,0.
 00002600,-0.00005466,-0.00000973,0.00000754,-0.00007732,0.00005960,0.0
 0006630,-0.00012591,0.00011789,0.00010814,-0.00021423,-0.00000663,-0.0
 0013285,0.00042131,-0.00028177,-0.00117943,-0.00098394,0.00129362,0.00
 015328,0.00016994,-0.01018489,0.01293978,-0.00450441,-0.00444188,0.002
 56495,-0.00137986,0.00110637,-0.00054893,0.00011310,-0.00014865,0.0003
 0890,0.00009333,-0.00010560,-0.00003498,-0.00005666,0.00015670,-0.0000
 6293,0.00001671,0.00208702,0.00088800,0.00096160,-0.00105855,-0.002613
 06,0.00063017,0.00073084,-0.00164208,0.00235313,-0.00013079,-0.0004211
 2,-0.00055128,0.00030504,-0.00025468,0.00047183,-0.00006874,0.00054296
 ,-0.00021433,-0.00007009,-0.00015652,-0.00010441,-0.00006084,-0.000039
 60,0.00002861,0.00013829,0.00017911,-0.00004458,-0.00006822,-0.0000421
 9,-0.00016867,-0.00000076,0.00001170,0.00003682,-0.00000416,-0.0000198
 4,0.00000847,0.00000452,0.00000470,-0.00000138,-0.00001180,-0.00001544
 ,0.00001526,-0.00000770,-0.00000758,-0.00001249,0.00005526,0.00004912,
 -0.00005418,-0.00009927,0.00008263,-0.00028214,-0.00228065,0.00041979,
 -0.00781256,-0.04277236,0.04823538,-0.02707131,-0.00000917,0.00000934,
 -0.00001008,0.00000887,0.00003031,-0.00000601,-0.00001234,0.00000862,-
 0.00000266,-0.00000181,0.00000570,-0.00000539,0.00000137,0.00000080,-0
 .00000143,0.00000322,0.00000390,-0.00000089,-0.00000419,-0.00000423,-0
 .00000804,0.00000910,0.00000131,0.00003441,0.00002081,-0.00000742,0.00
 001795,0.00001680,-0.00001159,0.00002700,-0.00011239,-0.00008266,0.000
 16293,0.00006440,0.00001753,-0.00002820,0.00007553,-0.00006741,-0.0000
 3926,-0.00090183,-0.00021364,0.00125387,0.00056986,-0.00093794,0.00103
 063,-0.00004584,0.00013265,-0.00006706,0.00001556,-0.00003257,-0.00001
 161,0.00000928,0.00000088,0.00001333,-0.00000613,0.00000077,-0.0000115
 9,-0.00000877,-0.00000153,-0.00000449,0.00016214,0.00020920,-0.0000754
 2,0.00006052,-0.00054196,-0.00044215,0.00003087,0.00010042,-0.00001691
 ,-0.00002268,-0.00000854,-0.00002514,0.00002588,-0.00002436,0.00000049
 ,0.00002328,0.00003344,-0.00000280,-0.00003215,0.00000545,-0.00008942,
 -0.00013812,-0.00019344,0.00000194,-0.00000047,-0.00000218,0.00000122,
 0.00000175,-0.00000317,-0.00000713,0.00000163,0.00000304,-0.00001002,-
 0.00000346,0.00000433,-0.00000449,0.00000172,0.00000755,-0.00000202,0.
 00000122,-0.00000637,0.00000502,0.00000503,-0.00000075,-0.00001039,0.0
 0000099,0.00000370,-0.00000248,0.00000517,0.00000565,-0.00000013,-0.00
 000769,-0.00000081,0.00000161,-0.00009716,-0.00012076,0.00010033,-0.00
 002741,0.00001163,0.00003489,0.00000040,-0.00000622,0.00003232,-0.0000
 2591,0.00005694,0.00004054,0.00039942,0.00213011,0.00024929,0.05580309
 ,-0.05984497,0.03611950\\-0.00000104,0.00000662,-0.00000293,-0.0000064
 0,-0.00000216,0.00000376,-0.00000432,-0.00000916,-0.00000625,-0.000001
 45,0.00000033,-0.00000836,-0.00000256,0.00001023,-0.00000466,0.0000009
 2,-0.00000254,-0.00000258,-0.00000162,0.00000376,-0.00000379,-0.000004
 83,0.00000354,0.00000634,0.00000317,-0.00000167,-0.00000360,-0.0000016
 8,0.00000357,0.00000160,-0.00000099,0.00000841,-0.00000463,0.00000302,
 -0.00000127,-0.00000556,0.00000391,0.00000703,0.00000921,-0.00000219,0
 .,-0.00001296,0.00000348,-0.00000501,0.00000844,0.00000392,-0.00000221
 ,-0.00000562,-0.00000404,0.00000438,0.00000511,0.00000137,0.00000338,0
 .00000218,0.00001378,-0.00000229,-0.00000349,-0.00000210,-0.00000074,-
 0.00000160,0.00000247,-0.00000143,-0.00000409,0.00000648,-0.00000469,0
 .00000676,-0.00000557,-0.00000194,-0.00000373,0.00000320,-0.00000652,0
 .00000521,-0.00000252,0.00000620,0.00000357,0.00001154,0.00000658,0.00
 000008,-0.00000555,-0.00000937,-0.00000383,0.00000368,0.00000295,0.000
 00298,0.00000071,-0.00000533,-0.00000233,0.00000429,0.00000578,0.00000
 234,-0.00000722,-0.00000693,0.00000603,0.00000133,-0.00000389,0.000007
 20,-0.00000507,0.00000305,0.00000256,-0.00000225,-0.00000161,0.0000016
 5,0.00000120,0.00000085,-0.00000075,-0.00000068,-0.00000175,0.00000187
 ,-0.00002415,-0.00000929,0.00001311,-0.00000128,-0.00000611,0.00000230
 ,0.00000136,-0.00000300,0.00000137,-0.00000404,-0.00000058,0.00000503,
 0.00000318,0.00000120,-0.00000096,-0.00000179,0.00000442,-0.00000093,0
 .00000062,0.00000116,-0.00000107,-0.00000023,0.00000196,-0.00000463,-0
 .00000108,0.00000174,-0.00000210,0.00000072,0.00000281,-0.00000472,0.0
 0000286,0.00000327,-0.00000203,-0.00000082,0.00000098,-0.00000531,-0.0
 0000479,0.00000221,-0.00000295,-0.00000221,0.00000220,-0.00000344,-0.0
 0000027,0.00000053,0.00000024,0.00000196,-0.00000265,-0.00000367,0.000
 00245,-0.00000210,0.00000171,-0.00000103,0.00000365,-0.00000182,-0.000
 00148,0.00000220,0.00000279,0.00000138,-0.00000320,0.00000061,0.000001
 76,-0.00000312,-0.00000060,0.00000286,0.00000243,-0.00000214,0.0000034
 5,0.00000009,-0.00000052,0.00000476,0.00000122,-0.00000191,0.00000278,
 -0.00000267,0.00000051,-0.00000181,-0.00000100,0.00000441,-0.00000079,
 -0.00000187,0.00000050,-0.00000483,-0.00000278,0.00000455,-0.00000123,
 -0.00000290,0.00000392,0.00000116,-0.00000028,0.00000173,0.00000193,-0
 .00000191,0.00000368,0.00000035,-0.00000311,-0.00000298,-0.00000353,0.
 00000017,0.00000318,-0.00000202,-0.00000083,0.00000200,0.00000046,0.00
 000014,0.00000190,-0.00000141,0.00000010,0.00000391,-0.00000176,0.0000
 0037,0.00000164,0.00000116,-0.00000135,-0.00000346,0.00000100,-0.00000
 003,0.00000121,0.00000105,-0.00000035,0.00000170,-0.00000181,0.0000024
 8,-0.00000119,0.00000239,0.00000075,-0.00000021,0.00000612,0.00000758,
 0.00000069,0.00001142,-0.00000304,-0.00001423,0.00000240,0.00000297,-0
 .00000519,-0.00000332,0.00000035,0.00000411,-0.00000282,0.00000016,0.0
 0000304,0.00000249,-0.00000110,0.00000012\\\@


 POCKETA-POCKETA
 BARON VON RICHTOFEN
 SLAUGHTERED THE ALLIES WITH
 HARDLY A CARE.
 KILLED EIGHTY-ONE WITH HIS
 BLOOD-COLORED TRIPLANE, THEN
 UN-AEROBATICALLY
 PLUNGED FROM THE AIR.
   -- TONY HOFFMAN
 Job cpu time:      17 days  5 hours 40 minutes 43.2 seconds.
 File lengths (MBytes):  RWF=  23984 Int=      0 D2E=      0 Chk=     97 Scr=      1
 Normal termination of Gaussian 09 at Sat Mar 26 15:45:59 2016.
