 Entering Gaussian System, Link 0=g09
 Initial command:
 /share/apps//g09/l1.exe "/scratch/Gau-41046.inp" -scrdir="/scratch/"
 Entering Link 1 = /share/apps//g09/l1.exe PID=     41067.
  
 Copyright (c) 1988,1990,1992,1993,1995,1998,2003,2009,2013,
            Gaussian, Inc.  All Rights Reserved.
  
 This is part of the Gaussian(R) 09 program.  It is based on
 the Gaussian(R) 03 system (copyright 2003, Gaussian, Inc.),
 the Gaussian(R) 98 system (copyright 1998, Gaussian, Inc.),
 the Gaussian(R) 94 system (copyright 1995, Gaussian, Inc.),
 the Gaussian 92(TM) system (copyright 1992, Gaussian, Inc.),
 the Gaussian 90(TM) system (copyright 1990, Gaussian, Inc.),
 the Gaussian 88(TM) system (copyright 1988, Gaussian, Inc.),
 the Gaussian 86(TM) system (copyright 1986, Carnegie Mellon
 University), and the Gaussian 82(TM) system (copyright 1983,
 Carnegie Mellon University). Gaussian is a federally registered
 trademark of Gaussian, Inc.
  
 This software contains proprietary and confidential information,
 including trade secrets, belonging to Gaussian, Inc.
  
 This software is provided under written license and may be
 used, copied, transmitted, or stored only in accord with that
 written license.
  
 The following legend is applicable only to US Government
 contracts under FAR:
  
                    RESTRICTED RIGHTS LEGEND
  
 Use, reproduction and disclosure by the US Government is
 subject to restrictions as set forth in subparagraphs (a)
 and (c) of the Commercial Computer Software - Restricted
 Rights clause in FAR 52.227-19.
  
 Gaussian, Inc.
 340 Quinnipiac St., Bldg. 40, Wallingford CT 06492
  
  
 ---------------------------------------------------------------
 Warning -- This program may not be used in any manner that
 competes with the business of Gaussian, Inc. or will provide
 assistance to any competitor of Gaussian, Inc.  The licensee
 of this program is prohibited from giving any competitor of
 Gaussian, Inc. access to this program.  By using this program,
 the user acknowledges that Gaussian, Inc. is engaged in the
 business of creating and licensing software in the field of
 computational chemistry and represents and warrants to the
 licensee that it is not a competitor of Gaussian, Inc. and that
 it will not use this program in any manner prohibited above.
 ---------------------------------------------------------------
  

 Cite this work as:
 Gaussian 09, Revision D.01,
 M. J. Frisch, G. W. Trucks, H. B. Schlegel, G. E. Scuseria, 
 M. A. Robb, J. R. Cheeseman, G. Scalmani, V. Barone, B. Mennucci, 
 G. A. Petersson, H. Nakatsuji, M. Caricato, X. Li, H. P. Hratchian, 
 A. F. Izmaylov, J. Bloino, G. Zheng, J. L. Sonnenberg, M. Hada, 
 M. Ehara, K. Toyota, R. Fukuda, J. Hasegawa, M. Ishida, T. Nakajima, 
 Y. Honda, O. Kitao, H. Nakai, T. Vreven, J. A. Montgomery, Jr., 
 J. E. Peralta, F. Ogliaro, M. Bearpark, J. J. Heyd, E. Brothers, 
 K. N. Kudin, V. N. Staroverov, T. Keith, R. Kobayashi, J. Normand, 
 K. Raghavachari, A. Rendell, J. C. Burant, S. S. Iyengar, J. Tomasi, 
 M. Cossi, N. Rega, J. M. Millam, M. Klene, J. E. Knox, J. B. Cross, 
 V. Bakken, C. Adamo, J. Jaramillo, R. Gomperts, R. E. Stratmann, 
 O. Yazyev, A. J. Austin, R. Cammi, C. Pomelli, J. W. Ochterski, 
 R. L. Martin, K. Morokuma, V. G. Zakrzewski, G. A. Voth, 
 P. Salvador, J. J. Dannenberg, S. Dapprich, A. D. Daniels, 
 O. Farkas, J. B. Foresman, J. V. Ortiz, J. Cioslowski, 
 and D. J. Fox, Gaussian, Inc., Wallingford CT, 2013.
 
 ******************************************
 Gaussian 09:  EM64L-G09RevD.01 24-Apr-2013
                 6-Apr-2016 
 ******************************************
 %nproc=20
 Will use up to   20 processors via shared memory.
 %mem=80GB
 %chk=Tri_A131_of.chk
 ----------------------------------------------------------------------
 #P PBE1PBE/6-311+G(d,p) opt=ModRedundant freq optcyc=999 EmpiricalDisp
 ersion=GD3
 ----------------------------------------------------------------------
 1/6=999,14=-1,18=120,19=15,26=3,38=1/1,3;
 2/9=110,12=2,17=6,18=5,40=1/2;
 3/5=4,6=6,7=111,11=2,16=1,25=1,30=1,71=1,74=-13,124=31/1,2,3;
 4//1;
 5/5=2,38=5/2;
 6/7=2,8=2,9=2,10=2,28=1/1;
 7//1,2,3,16;
 1/6=999,14=-1,18=20,19=15,26=3/3(2);
 2/9=110/2;
 99//99;
 2/9=110/2;
 3/5=4,6=6,7=111,11=2,16=1,25=1,30=1,71=1,74=-13,124=31/1,2,3;
 4/5=5,16=3,69=1/1;
 5/5=2,38=5/2;
 7//1,2,3,16;
 1/6=999,14=-1,18=20,19=15,26=3/3(-5);
 2/9=110/2;
 6/7=2,8=2,9=2,10=2,19=2,28=1/1;
 99/9=1/99;
 Leave Link    1 at Wed Apr  6 15:55:04 2016, MaxMem= 10737418240 cpu:         2.0
 (Enter /share/apps//g09/l101.exe)
 -------
 disacch
 -------
 Symbolic Z-matrix:
 Charge =  1 Multiplicity = 1
 O                    -1.32132  -3.73986   4.37611 
 C                    -0.77355  -2.594     3.67672 
 C                    -0.70627  -2.8379    2.16298 
 C                    -2.02952  -3.3578    1.59289 
 C                    -2.49288  -4.59523   2.36441 
 C                    -2.56999  -4.28455   3.8546 
 H                     0.25147  -2.50805   4.05935 
 H                     0.05578  -3.61676   2.0028 
 H                    -2.80908  -2.57629   1.68238 
 H                    -3.50893  -4.86824   2.02162 
 H                    -3.38132  -3.54603   3.99566 
 O                    -1.6001   -5.70225   2.16149 
 O                    -1.8722   -3.76188   0.23526 
 O                    -0.25126  -1.68843   1.46298 
 O                    -1.50662  -1.4139    3.91084 
 C                    -2.90009  -5.50308   4.71832 
 H                    -3.09514  -5.18509   5.75309 
 H                    -3.82599  -5.96419   4.33435 
 O                    -1.84074  -6.47183   4.77364 
 H                    -1.52692  -6.5838    3.84699 
 H                    -1.43313  -5.74913   1.19969 
 H                    -1.37671  -3.05485  -0.22072 
 H                    -0.68321  -0.91393   1.87528 
 O                    -1.1292   -0.76478   8.09366 
 C                     0.06077  -0.50029   7.34692 
 C                    -0.00523  -0.98215   5.86982 
 C                    -1.35456  -0.72922   5.20234 
 C                    -2.50804  -1.0897    6.14394 
 C                    -2.31914  -0.30198   7.44482 
 H                     0.27509   0.5837    7.35513 
 H                     0.11632  -2.07695   5.89513 
 H                    -1.437     0.33698   4.93948 
 H                    -3.46724  -0.80934   5.67934 
 H                    -2.2426    0.77663   7.20562 
 O                    -2.52532  -2.48866   6.48619 
 O                     1.01818  -0.38644   5.09879 
 O                     1.13901  -1.07563   8.06235 
 C                    -3.46242  -0.48552   8.44003 
 H                    -3.55988  -1.55472   8.70079 
 H                    -3.21372   0.07885   9.35473 
 O                    -4.63687   0.01311   7.802 
 H                    -5.36653   0.00035   8.4426 
 H                    -2.0803   -2.97985   5.75297 
 H                     1.87323  -0.73731   5.43553 
 O                     1.42374  -4.67485   8.90094 
 C                     2.77868  -4.96095   8.53798 
 C                     3.24719  -4.09357   7.36382 
 C                     2.89354  -2.61972   7.54059 
 C                     1.41865  -2.47233   7.90986 
 C                     1.0845   -3.2983    9.16612 
 H                     3.44525  -4.84036   9.41668 
 H                     2.71199  -4.45576   6.46284 
 H                     3.51726  -2.17441   8.3379 
 H                     1.6424   -2.91589   10.04254 
 H                     0.82225  -2.91962   7.10114 
 O                     3.11846  -1.92541   6.30599 
 O                     4.65621  -4.16059   7.17268 
 O                     2.78508  -6.28189   8.06109 
 C                    -0.40354  -3.32859   9.51148 
 H                    -0.53579  -3.98547   10.38369 
 H                    -0.7453   -2.3189    9.76648 
 O                    -1.20003  -3.87124   8.44415 
 H                    -1.6251   -3.14704   7.91211 
 H                     4.05679  -2.04978   6.07302 
 H                     4.88441  -5.06132   6.88153 
 C                     2.57905  -7.3017    9.07285 
 H                     3.46073  -7.33367   9.73533 
 H                     1.70699  -7.02956   9.6858 
 C                     2.39661  -8.64425   8.37231 
 H                     2.13926  -9.38624   9.14614 
 H                     3.37252  -8.95469   7.96767 
 C                     1.3782   -8.70926   7.21831 
 H                     1.65591  -7.96757   6.45076 
 H                     1.52261  -9.68162   6.72384 
 C                    -0.12427  -8.6131    7.54521 
 H                    -0.68754  -8.90457   6.64385 
 H                    -0.38404  -9.35992   8.31291 
 C                    -0.6728   -7.272     8.03453 
 H                    -0.28154  -6.98746   9.01848 
 H                    -1.76711  -7.31379   8.11376 
 N                    -0.35096  -6.13398   7.11107 
 H                    -0.67578  -5.22569   7.55515 
 H                    -0.79626  -6.25826   6.16317 
 H                     0.67196  -6.05368   7.0193 
 
 The following ModRedundant input section has been read:
 B      62      82 B                                                           
 B      58      84 B                                                           
 B      19      83 B                                                           
 B      35      63 B                                                           
 B       1      43 B                                                           
 B      44      56 B                                                           
 
 NAtoms=     84 NQM=       84 NQMF=       0 NMMI=      0 NMMIF=      0
                NMic=       0 NMicF=      0.
                    Isotopes and Nuclear Properties:
 (Nuclear quadrupole moments (NQMom) in fm**2, nuclear magnetic moments (NMagM)
  in nuclear magnetons)

  Atom         1           2           3           4           5           6           7           8           9          10
 IAtWgt=          16          12          12          12          12          12           1           1           1           1
 AtmWgt=  15.9949146  12.0000000  12.0000000  12.0000000  12.0000000  12.0000000   1.0078250   1.0078250   1.0078250   1.0078250
 NucSpn=           0           0           0           0           0           0           1           1           1           1
 AtZEff=   0.0000000   0.0000000   0.0000000   0.0000000   0.0000000   0.0000000   0.0000000   0.0000000   0.0000000   0.0000000
 NQMom=    0.0000000   0.0000000   0.0000000   0.0000000   0.0000000   0.0000000   0.0000000   0.0000000   0.0000000   0.0000000
 NMagM=    0.0000000   0.0000000   0.0000000   0.0000000   0.0000000   0.0000000   2.7928460   2.7928460   2.7928460   2.7928460
 AtZNuc=   8.0000000   6.0000000   6.0000000   6.0000000   6.0000000   6.0000000   1.0000000   1.0000000   1.0000000   1.0000000

  Atom        11          12          13          14          15          16          17          18          19          20
 IAtWgt=           1          16          16          16          16          12           1           1          16           1
 AtmWgt=   1.0078250  15.9949146  15.9949146  15.9949146  15.9949146  12.0000000   1.0078250   1.0078250  15.9949146   1.0078250
 NucSpn=           1           0           0           0           0           0           1           1           0           1
 AtZEff=   0.0000000   0.0000000   0.0000000   0.0000000   0.0000000   0.0000000   0.0000000   0.0000000   0.0000000   0.0000000
 NQMom=    0.0000000   0.0000000   0.0000000   0.0000000   0.0000000   0.0000000   0.0000000   0.0000000   0.0000000   0.0000000
 NMagM=    2.7928460   0.0000000   0.0000000   0.0000000   0.0000000   0.0000000   2.7928460   2.7928460   0.0000000   2.7928460
 AtZNuc=   1.0000000   8.0000000   8.0000000   8.0000000   8.0000000   6.0000000   1.0000000   1.0000000   8.0000000   1.0000000

  Atom        21          22          23          24          25          26          27          28          29          30
 IAtWgt=           1           1           1          16          12          12          12          12          12           1
 AtmWgt=   1.0078250   1.0078250   1.0078250  15.9949146  12.0000000  12.0000000  12.0000000  12.0000000  12.0000000   1.0078250
 NucSpn=           1           1           1           0           0           0           0           0           0           1
 AtZEff=   0.0000000   0.0000000   0.0000000   0.0000000   0.0000000   0.0000000   0.0000000   0.0000000   0.0000000   0.0000000
 NQMom=    0.0000000   0.0000000   0.0000000   0.0000000   0.0000000   0.0000000   0.0000000   0.0000000   0.0000000   0.0000000
 NMagM=    2.7928460   2.7928460   2.7928460   0.0000000   0.0000000   0.0000000   0.0000000   0.0000000   0.0000000   2.7928460
 AtZNuc=   1.0000000   1.0000000   1.0000000   8.0000000   6.0000000   6.0000000   6.0000000   6.0000000   6.0000000   1.0000000

  Atom        31          32          33          34          35          36          37          38          39          40
 IAtWgt=           1           1           1           1          16          16          16          12           1           1
 AtmWgt=   1.0078250   1.0078250   1.0078250   1.0078250  15.9949146  15.9949146  15.9949146  12.0000000   1.0078250   1.0078250
 NucSpn=           1           1           1           1           0           0           0           0           1           1
 AtZEff=   0.0000000   0.0000000   0.0000000   0.0000000   0.0000000   0.0000000   0.0000000   0.0000000   0.0000000   0.0000000
 NQMom=    0.0000000   0.0000000   0.0000000   0.0000000   0.0000000   0.0000000   0.0000000   0.0000000   0.0000000   0.0000000
 NMagM=    2.7928460   2.7928460   2.7928460   2.7928460   0.0000000   0.0000000   0.0000000   0.0000000   2.7928460   2.7928460
 AtZNuc=   1.0000000   1.0000000   1.0000000   1.0000000   8.0000000   8.0000000   8.0000000   6.0000000   1.0000000   1.0000000

  Atom        41          42          43          44          45          46          47          48          49          50
 IAtWgt=          16           1           1           1          16          12          12          12          12          12
 AtmWgt=  15.9949146   1.0078250   1.0078250   1.0078250  15.9949146  12.0000000  12.0000000  12.0000000  12.0000000  12.0000000
 NucSpn=           0           1           1           1           0           0           0           0           0           0
 AtZEff=   0.0000000   0.0000000   0.0000000   0.0000000   0.0000000   0.0000000   0.0000000   0.0000000   0.0000000   0.0000000
 NQMom=    0.0000000   0.0000000   0.0000000   0.0000000   0.0000000   0.0000000   0.0000000   0.0000000   0.0000000   0.0000000
 NMagM=    0.0000000   2.7928460   2.7928460   2.7928460   0.0000000   0.0000000   0.0000000   0.0000000   0.0000000   0.0000000
 AtZNuc=   8.0000000   1.0000000   1.0000000   1.0000000   8.0000000   6.0000000   6.0000000   6.0000000   6.0000000   6.0000000

  Atom        51          52          53          54          55          56          57          58          59          60
 IAtWgt=           1           1           1           1           1          16          16          16          12           1
 AtmWgt=   1.0078250   1.0078250   1.0078250   1.0078250   1.0078250  15.9949146  15.9949146  15.9949146  12.0000000   1.0078250
 NucSpn=           1           1           1           1           1           0           0           0           0           1
 AtZEff=   0.0000000   0.0000000   0.0000000   0.0000000   0.0000000   0.0000000   0.0000000   0.0000000   0.0000000   0.0000000
 NQMom=    0.0000000   0.0000000   0.0000000   0.0000000   0.0000000   0.0000000   0.0000000   0.0000000   0.0000000   0.0000000
 NMagM=    2.7928460   2.7928460   2.7928460   2.7928460   2.7928460   0.0000000   0.0000000   0.0000000   0.0000000   2.7928460
 AtZNuc=   1.0000000   1.0000000   1.0000000   1.0000000   1.0000000   8.0000000   8.0000000   8.0000000   6.0000000   1.0000000

  Atom        61          62          63          64          65          66          67          68          69          70
 IAtWgt=           1          16           1           1           1          12           1           1          12           1
 AtmWgt=   1.0078250  15.9949146   1.0078250   1.0078250   1.0078250  12.0000000   1.0078250   1.0078250  12.0000000   1.0078250
 NucSpn=           1           0           1           1           1           0           1           1           0           1
 AtZEff=   0.0000000   0.0000000   0.0000000   0.0000000   0.0000000   0.0000000   0.0000000   0.0000000   0.0000000   0.0000000
 NQMom=    0.0000000   0.0000000   0.0000000   0.0000000   0.0000000   0.0000000   0.0000000   0.0000000   0.0000000   0.0000000
 NMagM=    2.7928460   0.0000000   2.7928460   2.7928460   2.7928460   0.0000000   2.7928460   2.7928460   0.0000000   2.7928460
 AtZNuc=   1.0000000   8.0000000   1.0000000   1.0000000   1.0000000   6.0000000   1.0000000   1.0000000   6.0000000   1.0000000

  Atom        71          72          73          74          75          76          77          78          79          80
 IAtWgt=           1          12           1           1          12           1           1          12           1           1
 AtmWgt=   1.0078250  12.0000000   1.0078250   1.0078250  12.0000000   1.0078250   1.0078250  12.0000000   1.0078250   1.0078250
 NucSpn=           1           0           1           1           0           1           1           0           1           1
 AtZEff=   0.0000000   0.0000000   0.0000000   0.0000000   0.0000000   0.0000000   0.0000000   0.0000000   0.0000000   0.0000000
 NQMom=    0.0000000   0.0000000   0.0000000   0.0000000   0.0000000   0.0000000   0.0000000   0.0000000   0.0000000   0.0000000
 NMagM=    2.7928460   0.0000000   2.7928460   2.7928460   0.0000000   2.7928460   2.7928460   0.0000000   2.7928460   2.7928460
 AtZNuc=   1.0000000   6.0000000   1.0000000   1.0000000   6.0000000   1.0000000   1.0000000   6.0000000   1.0000000   1.0000000

  Atom        81          82          83          84
 IAtWgt=          14           1           1           1
 AtmWgt=  14.0030740   1.0078250   1.0078250   1.0078250
 NucSpn=           2           1           1           1
 AtZEff=   0.0000000   0.0000000   0.0000000   0.0000000
 NQMom=    2.0440000   0.0000000   0.0000000   0.0000000
 NMagM=    0.4037610   2.7928460   2.7928460   2.7928460
 AtZNuc=   7.0000000   1.0000000   1.0000000   1.0000000
 Leave Link  101 at Wed Apr  6 15:55:05 2016, MaxMem= 10737418240 cpu:         5.4
 (Enter /share/apps//g09/l103.exe)

 GradGradGradGradGradGradGradGradGradGradGradGradGradGradGradGradGradGrad
 Berny optimization.
 Initialization pass.
                           ----------------------------
                           !    Initial Parameters    !
                           ! (Angstroms and Degrees)  !
 --------------------------                            --------------------------
 ! Name  Definition              Value          Derivative Info.                !
 --------------------------------------------------------------------------------
 ! R1    R(1,2)                  1.4499         estimate D2E/DX2                !
 ! R2    R(1,6)                  1.4587         estimate D2E/DX2                !
 ! R3    R(1,43)                 1.7463         estimate D2E/DX2                !
 ! R4    R(2,3)                  1.5347         estimate D2E/DX2                !
 ! R5    R(2,7)                  1.0975         estimate D2E/DX2                !
 ! R6    R(2,15)                 1.4088         estimate D2E/DX2                !
 ! R7    R(3,4)                  1.5318         estimate D2E/DX2                !
 ! R8    R(3,8)                  1.1014         estimate D2E/DX2                !
 ! R9    R(3,14)                 1.4207         estimate D2E/DX2                !
 ! R10   R(4,5)                  1.5301         estimate D2E/DX2                !
 ! R11   R(4,9)                  1.1075         estimate D2E/DX2                !
 ! R12   R(4,13)                 1.4252         estimate D2E/DX2                !
 ! R13   R(5,6)                  1.5242         estimate D2E/DX2                !
 ! R14   R(5,10)                 1.1065         estimate D2E/DX2                !
 ! R15   R(5,12)                 1.4366         estimate D2E/DX2                !
 ! R16   R(6,11)                 1.1061         estimate D2E/DX2                !
 ! R17   R(6,16)                 1.5296         estimate D2E/DX2                !
 ! R18   R(12,21)                0.9773         estimate D2E/DX2                !
 ! R19   R(13,22)                0.9764         estimate D2E/DX2                !
 ! R20   R(14,23)                0.978          estimate D2E/DX2                !
 ! R21   R(15,27)                1.4697         estimate D2E/DX2                !
 ! R22   R(16,17)                1.1            estimate D2E/DX2                !
 ! R23   R(16,18)                1.1033         estimate D2E/DX2                !
 ! R24   R(16,19)                1.4366         estimate D2E/DX2                !
 ! R25   R(19,20)                0.9847         estimate D2E/DX2                !
 ! R26   R(19,83)                1.7514         estimate D2E/DX2                !
 ! R27   R(24,25)                1.4295         estimate D2E/DX2                !
 ! R28   R(24,29)                1.4322         estimate D2E/DX2                !
 ! R29   R(25,26)                1.5551         estimate D2E/DX2                !
 ! R30   R(25,30)                1.105          estimate D2E/DX2                !
 ! R31   R(25,37)                1.4161         estimate D2E/DX2                !
 ! R32   R(26,27)                1.5265         estimate D2E/DX2                !
 ! R33   R(26,31)                1.1018         estimate D2E/DX2                !
 ! R34   R(26,36)                1.4131         estimate D2E/DX2                !
 ! R35   R(27,28)                1.532          estimate D2E/DX2                !
 ! R36   R(27,32)                1.1012         estimate D2E/DX2                !
 ! R37   R(28,29)                1.5325         estimate D2E/DX2                !
 ! R38   R(28,33)                1.1021         estimate D2E/DX2                !
 ! R39   R(28,35)                1.4403         estimate D2E/DX2                !
 ! R40   R(29,34)                1.1075         estimate D2E/DX2                !
 ! R41   R(29,38)                1.5268         estimate D2E/DX2                !
 ! R42   R(35,43)                0.9884         estimate D2E/DX2                !
 ! R43   R(35,63)                1.8103         estimate D2E/DX2                !
 ! R44   R(36,44)                0.9837         estimate D2E/DX2                !
 ! R45   R(37,49)                1.4326         estimate D2E/DX2                !
 ! R46   R(38,39)                1.1048         estimate D2E/DX2                !
 ! R47   R(38,40)                1.1032         estimate D2E/DX2                !
 ! R48   R(38,41)                1.4266         estimate D2E/DX2                !
 ! R49   R(41,42)                0.971          estimate D2E/DX2                !
 ! R50   R(44,56)                1.9287         estimate D2E/DX2                !
 ! R51   R(45,46)                1.4316         estimate D2E/DX2                !
 ! R52   R(45,50)                1.4423         estimate D2E/DX2                !
 ! R53   R(46,47)                1.5331         estimate D2E/DX2                !
 ! R54   R(46,51)                1.1095         estimate D2E/DX2                !
 ! R55   R(46,58)                1.4044         estimate D2E/DX2                !
 ! R56   R(47,48)                1.526          estimate D2E/DX2                !
 ! R57   R(47,52)                1.1088         estimate D2E/DX2                !
 ! R58   R(47,57)                1.4235         estimate D2E/DX2                !
 ! R59   R(48,49)                1.5275         estimate D2E/DX2                !
 ! R60   R(48,53)                1.1059         estimate D2E/DX2                !
 ! R61   R(48,56)                1.4342         estimate D2E/DX2                !
 ! R62   R(49,50)                1.5402         estimate D2E/DX2                !
 ! R63   R(49,55)                1.0999         estimate D2E/DX2                !
 ! R64   R(50,54)                1.1071         estimate D2E/DX2                !
 ! R65   R(50,59)                1.5279         estimate D2E/DX2                !
 ! R66   R(56,64)                0.9748         estimate D2E/DX2                !
 ! R67   R(57,65)                0.9737         estimate D2E/DX2                !
 ! R68   R(58,66)                1.4512         estimate D2E/DX2                !
 ! R69   R(58,84)                2.367          estimate D2E/DX2                !
 ! R70   R(59,60)                1.0999         estimate D2E/DX2                !
 ! R71   R(59,61)                1.096          estimate D2E/DX2                !
 ! R72   R(59,62)                1.4381         estimate D2E/DX2                !
 ! R73   R(62,63)                0.9941         estimate D2E/DX2                !
 ! R74   R(62,82)                1.7028         estimate D2E/DX2                !
 ! R75   R(66,67)                1.1033         estimate D2E/DX2                !
 ! R76   R(66,68)                1.1001         estimate D2E/DX2                !
 ! R77   R(66,69)                1.5253         estimate D2E/DX2                !
 ! R78   R(69,70)                1.1025         estimate D2E/DX2                !
 ! R79   R(69,71)                1.1011         estimate D2E/DX2                !
 ! R80   R(69,72)                1.5405         estimate D2E/DX2                !
 ! R81   R(72,73)                1.1029         estimate D2E/DX2                !
 ! R82   R(72,74)                1.1004         estimate D2E/DX2                !
 ! R83   R(72,75)                1.5406         estimate D2E/DX2                !
 ! R84   R(75,76)                1.1021         estimate D2E/DX2                !
 ! R85   R(75,77)                1.1021         estimate D2E/DX2                !
 ! R86   R(75,78)                1.5293         estimate D2E/DX2                !
 ! R87   R(78,79)                1.0965         estimate D2E/DX2                !
 ! R88   R(78,80)                1.098          estimate D2E/DX2                !
 ! R89   R(78,81)                1.5005         estimate D2E/DX2                !
 ! R90   R(81,82)                1.0619         estimate D2E/DX2                !
 ! R91   R(81,83)                1.0546         estimate D2E/DX2                !
 ! R92   R(81,84)                1.0302         estimate D2E/DX2                !
 ! A1    A(2,1,6)              116.4905         estimate D2E/DX2                !
 ! A2    A(2,1,43)             101.5708         estimate D2E/DX2                !
 ! A3    A(6,1,43)              94.1491         estimate D2E/DX2                !
 ! A4    A(1,2,3)              111.5147         estimate D2E/DX2                !
 ! A5    A(1,2,7)              104.2748         estimate D2E/DX2                !
 ! A6    A(1,2,15)             112.6591         estimate D2E/DX2                !
 ! A7    A(3,2,7)              108.3835         estimate D2E/DX2                !
 ! A8    A(3,2,15)             108.6528         estimate D2E/DX2                !
 ! A9    A(7,2,15)             111.2503         estimate D2E/DX2                !
 ! A10   A(2,3,4)              112.5293         estimate D2E/DX2                !
 ! A11   A(2,3,8)              106.6285         estimate D2E/DX2                !
 ! A12   A(2,3,14)             111.8045         estimate D2E/DX2                !
 ! A13   A(4,3,8)              107.6724         estimate D2E/DX2                !
 ! A14   A(4,3,14)             111.5873         estimate D2E/DX2                !
 ! A15   A(8,3,14)             106.1954         estimate D2E/DX2                !
 ! A16   A(3,4,5)              110.3918         estimate D2E/DX2                !
 ! A17   A(3,4,9)              109.7857         estimate D2E/DX2                !
 ! A18   A(3,4,13)             110.8185         estimate D2E/DX2                !
 ! A19   A(5,4,9)              108.4688         estimate D2E/DX2                !
 ! A20   A(5,4,13)             106.5265         estimate D2E/DX2                !
 ! A21   A(9,4,13)             110.7783         estimate D2E/DX2                !
 ! A22   A(4,5,6)              110.0878         estimate D2E/DX2                !
 ! A23   A(4,5,10)             108.7477         estimate D2E/DX2                !
 ! A24   A(4,5,12)             111.3327         estimate D2E/DX2                !
 ! A25   A(6,5,10)             107.8615         estimate D2E/DX2                !
 ! A26   A(6,5,12)             109.0636         estimate D2E/DX2                !
 ! A27   A(10,5,12)            109.68           estimate D2E/DX2                !
 ! A28   A(1,6,5)              112.4791         estimate D2E/DX2                !
 ! A29   A(1,6,11)             109.4488         estimate D2E/DX2                !
 ! A30   A(1,6,16)             106.2791         estimate D2E/DX2                !
 ! A31   A(5,6,11)             107.3301         estimate D2E/DX2                !
 ! A32   A(5,6,16)             113.6159         estimate D2E/DX2                !
 ! A33   A(11,6,16)            107.5517         estimate D2E/DX2                !
 ! A34   A(5,12,21)            106.3887         estimate D2E/DX2                !
 ! A35   A(4,13,22)            107.1921         estimate D2E/DX2                !
 ! A36   A(3,14,23)            106.9525         estimate D2E/DX2                !
 ! A37   A(2,15,27)            118.8445         estimate D2E/DX2                !
 ! A38   A(6,16,17)            109.826          estimate D2E/DX2                !
 ! A39   A(6,16,18)            108.5128         estimate D2E/DX2                !
 ! A40   A(6,16,19)            113.5657         estimate D2E/DX2                !
 ! A41   A(17,16,18)           107.4212         estimate D2E/DX2                !
 ! A42   A(17,16,19)           106.827          estimate D2E/DX2                !
 ! A43   A(18,16,19)           110.5118         estimate D2E/DX2                !
 ! A44   A(16,19,20)           105.9884         estimate D2E/DX2                !
 ! A45   A(16,19,83)           112.8359         estimate D2E/DX2                !
 ! A46   A(20,19,83)           124.7783         estimate D2E/DX2                !
 ! A47   A(25,24,29)           113.277          estimate D2E/DX2                !
 ! A48   A(24,25,26)           113.7972         estimate D2E/DX2                !
 ! A49   A(24,25,30)           109.82           estimate D2E/DX2                !
 ! A50   A(24,25,37)           107.1413         estimate D2E/DX2                !
 ! A51   A(26,25,30)           108.6177         estimate D2E/DX2                !
 ! A52   A(26,25,37)           112.7233         estimate D2E/DX2                !
 ! A53   A(30,25,37)           104.307          estimate D2E/DX2                !
 ! A54   A(25,26,27)           113.6721         estimate D2E/DX2                !
 ! A55   A(25,26,31)           106.3427         estimate D2E/DX2                !
 ! A56   A(25,26,36)           110.9105         estimate D2E/DX2                !
 ! A57   A(27,26,31)           105.795          estimate D2E/DX2                !
 ! A58   A(27,26,36)           109.3752         estimate D2E/DX2                !
 ! A59   A(31,26,36)           110.5807         estimate D2E/DX2                !
 ! A60   A(15,27,26)           113.4858         estimate D2E/DX2                !
 ! A61   A(15,27,28)           110.6457         estimate D2E/DX2                !
 ! A62   A(15,27,32)           103.5065         estimate D2E/DX2                !
 ! A63   A(26,27,28)           110.9649         estimate D2E/DX2                !
 ! A64   A(26,27,32)           109.3279         estimate D2E/DX2                !
 ! A65   A(28,27,32)           108.5516         estimate D2E/DX2                !
 ! A66   A(27,28,29)           107.9373         estimate D2E/DX2                !
 ! A67   A(27,28,33)           109.6549         estimate D2E/DX2                !
 ! A68   A(27,28,35)           112.558          estimate D2E/DX2                !
 ! A69   A(29,28,33)           109.5353         estimate D2E/DX2                !
 ! A70   A(29,28,35)           107.3991         estimate D2E/DX2                !
 ! A71   A(33,28,35)           109.6836         estimate D2E/DX2                !
 ! A72   A(24,29,28)           108.7169         estimate D2E/DX2                !
 ! A73   A(24,29,34)           110.8029         estimate D2E/DX2                !
 ! A74   A(24,29,38)           106.738          estimate D2E/DX2                !
 ! A75   A(28,29,34)           109.0139         estimate D2E/DX2                !
 ! A76   A(28,29,38)           113.5294         estimate D2E/DX2                !
 ! A77   A(34,29,38)           108.0359         estimate D2E/DX2                !
 ! A78   A(28,35,43)           107.5184         estimate D2E/DX2                !
 ! A79   A(28,35,63)           122.3066         estimate D2E/DX2                !
 ! A80   A(43,35,63)           100.3515         estimate D2E/DX2                !
 ! A81   A(26,36,44)           107.0009         estimate D2E/DX2                !
 ! A82   A(25,37,49)           119.4033         estimate D2E/DX2                !
 ! A83   A(29,38,39)           109.6468         estimate D2E/DX2                !
 ! A84   A(29,38,40)           108.0677         estimate D2E/DX2                !
 ! A85   A(29,38,41)           106.4347         estimate D2E/DX2                !
 ! A86   A(39,38,40)           108.6188         estimate D2E/DX2                !
 ! A87   A(39,38,41)           111.7893         estimate D2E/DX2                !
 ! A88   A(40,38,41)           112.1861         estimate D2E/DX2                !
 ! A89   A(38,41,42)           108.6012         estimate D2E/DX2                !
 ! A90   A(36,44,56)           159.2989         estimate D2E/DX2                !
 ! A91   A(46,45,50)           117.3844         estimate D2E/DX2                !
 ! A92   A(45,46,47)           111.7362         estimate D2E/DX2                !
 ! A93   A(45,46,51)           110.2491         estimate D2E/DX2                !
 ! A94   A(45,46,58)           106.1633         estimate D2E/DX2                !
 ! A95   A(47,46,51)           111.1899         estimate D2E/DX2                !
 ! A96   A(47,46,58)           105.7048         estimate D2E/DX2                !
 ! A97   A(51,46,58)           111.6185         estimate D2E/DX2                !
 ! A98   A(46,47,48)           112.7615         estimate D2E/DX2                !
 ! A99   A(46,47,52)           106.8586         estimate D2E/DX2                !
 ! A100  A(46,47,57)           112.2519         estimate D2E/DX2                !
 ! A101  A(48,47,52)           107.3235         estimate D2E/DX2                !
 ! A102  A(48,47,57)           106.8834         estimate D2E/DX2                !
 ! A103  A(52,47,57)           110.6889         estimate D2E/DX2                !
 ! A104  A(47,48,49)           110.1797         estimate D2E/DX2                !
 ! A105  A(47,48,53)           109.9819         estimate D2E/DX2                !
 ! A106  A(47,48,56)           109.3608         estimate D2E/DX2                !
 ! A107  A(49,48,53)           109.3545         estimate D2E/DX2                !
 ! A108  A(49,48,56)           108.2287         estimate D2E/DX2                !
 ! A109  A(53,48,56)           109.7088         estimate D2E/DX2                !
 ! A110  A(37,49,48)           107.9556         estimate D2E/DX2                !
 ! A111  A(37,49,50)           113.1844         estimate D2E/DX2                !
 ! A112  A(37,49,55)           111.6481         estimate D2E/DX2                !
 ! A113  A(48,49,50)           110.7883         estimate D2E/DX2                !
 ! A114  A(48,49,55)           107.8519         estimate D2E/DX2                !
 ! A115  A(50,49,55)           105.3077         estimate D2E/DX2                !
 ! A116  A(45,50,49)           108.1098         estimate D2E/DX2                !
 ! A117  A(45,50,54)           110.8974         estimate D2E/DX2                !
 ! A118  A(45,50,59)           104.5785         estimate D2E/DX2                !
 ! A119  A(49,50,54)           110.5577         estimate D2E/DX2                !
 ! A120  A(49,50,59)           113.9729         estimate D2E/DX2                !
 ! A121  A(54,50,59)           108.5845         estimate D2E/DX2                !
 ! A122  A(44,56,48)           125.8368         estimate D2E/DX2                !
 ! A123  A(44,56,64)           126.3146         estimate D2E/DX2                !
 ! A124  A(48,56,64)           107.1535         estimate D2E/DX2                !
 ! A125  A(47,57,65)           108.4013         estimate D2E/DX2                !
 ! A126  A(46,58,66)           115.0601         estimate D2E/DX2                !
 ! A127  A(46,58,84)            93.1358         estimate D2E/DX2                !
 ! A128  A(66,58,84)           104.3506         estimate D2E/DX2                !
 ! A129  A(50,59,60)           107.9504         estimate D2E/DX2                !
 ! A130  A(50,59,61)           109.7555         estimate D2E/DX2                !
 ! A131  A(50,59,62)           112.2798         estimate D2E/DX2                !
 ! A132  A(60,59,61)           109.1589         estimate D2E/DX2                !
 ! A133  A(60,59,62)           107.2539         estimate D2E/DX2                !
 ! A134  A(61,59,62)           110.3401         estimate D2E/DX2                !
 ! A135  A(59,62,63)           111.0483         estimate D2E/DX2                !
 ! A136  A(59,62,82)           121.138          estimate D2E/DX2                !
 ! A137  A(63,62,82)           115.5746         estimate D2E/DX2                !
 ! A138  A(35,63,62)           154.0472         estimate D2E/DX2                !
 ! A139  A(58,66,67)           108.9976         estimate D2E/DX2                !
 ! A140  A(58,66,68)           109.0955         estimate D2E/DX2                !
 ! A141  A(58,66,69)           108.3795         estimate D2E/DX2                !
 ! A142  A(67,66,68)           107.8234         estimate D2E/DX2                !
 ! A143  A(67,66,69)           110.2343         estimate D2E/DX2                !
 ! A144  A(68,66,69)           112.2608         estimate D2E/DX2                !
 ! A145  A(66,69,70)           107.3329         estimate D2E/DX2                !
 ! A146  A(66,69,71)           108.1146         estimate D2E/DX2                !
 ! A147  A(66,69,72)           117.405          estimate D2E/DX2                !
 ! A148  A(70,69,71)           105.9653         estimate D2E/DX2                !
 ! A149  A(70,69,72)           110.0636         estimate D2E/DX2                !
 ! A150  A(71,69,72)           107.3816         estimate D2E/DX2                !
 ! A151  A(69,72,73)           109.0563         estimate D2E/DX2                !
 ! A152  A(69,72,74)           106.6877         estimate D2E/DX2                !
 ! A153  A(69,72,75)           118.8905         estimate D2E/DX2                !
 ! A154  A(73,72,74)           104.3876         estimate D2E/DX2                !
 ! A155  A(73,72,75)           110.5645         estimate D2E/DX2                !
 ! A156  A(74,72,75)           106.1701         estimate D2E/DX2                !
 ! A157  A(72,75,76)           107.9615         estimate D2E/DX2                !
 ! A158  A(72,75,77)           109.5958         estimate D2E/DX2                !
 ! A159  A(72,75,78)           118.1911         estimate D2E/DX2                !
 ! A160  A(76,75,77)           105.6656         estimate D2E/DX2                !
 ! A161  A(76,75,78)           108.0758         estimate D2E/DX2                !
 ! A162  A(77,75,78)           106.6675         estimate D2E/DX2                !
 ! A163  A(75,78,79)           112.7497         estimate D2E/DX2                !
 ! A164  A(75,78,80)           110.3154         estimate D2E/DX2                !
 ! A165  A(75,78,81)           113.0316         estimate D2E/DX2                !
 ! A166  A(79,78,80)           107.5041         estimate D2E/DX2                !
 ! A167  A(79,78,81)           106.1966         estimate D2E/DX2                !
 ! A168  A(80,78,81)           106.6816         estimate D2E/DX2                !
 ! A169  A(78,81,82)           109.0098         estimate D2E/DX2                !
 ! A170  A(78,81,83)           111.9141         estimate D2E/DX2                !
 ! A171  A(78,81,84)           109.0824         estimate D2E/DX2                !
 ! A172  A(82,81,83)           110.3345         estimate D2E/DX2                !
 ! A173  A(82,81,84)           105.9207         estimate D2E/DX2                !
 ! A174  A(83,81,84)           110.3884         estimate D2E/DX2                !
 ! A175  A(58,84,81)           147.1129         estimate D2E/DX2                !
 ! A176  L(1,43,35,17,-1)      182.9241         estimate D2E/DX2                !
 ! A177  L(62,82,81,1,-1)      186.7174         estimate D2E/DX2                !
 ! A178  L(19,83,81,7,-1)      185.5245         estimate D2E/DX2                !
 ! A179  L(1,43,35,17,-2)      183.5543         estimate D2E/DX2                !
 ! A180  L(62,82,81,1,-2)      181.4708         estimate D2E/DX2                !
 ! A181  L(19,83,81,7,-2)      169.5263         estimate D2E/DX2                !
 ! D1    D(6,1,2,3)            -49.7474         estimate D2E/DX2                !
 ! D2    D(6,1,2,7)           -166.4971         estimate D2E/DX2                !
 ! D3    D(6,1,2,15)            72.7398         estimate D2E/DX2                !
 ! D4    D(43,1,2,3)          -150.3825         estimate D2E/DX2                !
 ! D5    D(43,1,2,7)            92.8678         estimate D2E/DX2                !
 ! D6    D(43,1,2,15)          -27.8952         estimate D2E/DX2                !
 ! D7    D(2,1,6,5)             52.7846         estimate D2E/DX2                !
 ! D8    D(2,1,6,11)           -66.424          estimate D2E/DX2                !
 ! D9    D(2,1,6,16)           177.7086         estimate D2E/DX2                !
 ! D10   D(43,1,6,5)           157.9052         estimate D2E/DX2                !
 ! D11   D(43,1,6,11)           38.6965         estimate D2E/DX2                !
 ! D12   D(43,1,6,16)          -77.1709         estimate D2E/DX2                !
 ! D13   D(2,1,35,28)           11.5683         estimate D2E/DX2                !
 ! D14   D(2,1,35,63)         -117.3011         estimate D2E/DX2                !
 ! D15   D(6,1,35,28)         -106.2666         estimate D2E/DX2                !
 ! D16   D(6,1,35,63)          124.8641         estimate D2E/DX2                !
 ! D17   D(1,2,3,4)             49.7175         estimate D2E/DX2                !
 ! D18   D(1,2,3,8)            -68.1148         estimate D2E/DX2                !
 ! D19   D(1,2,3,14)           176.2273         estimate D2E/DX2                !
 ! D20   D(7,2,3,4)            163.9414         estimate D2E/DX2                !
 ! D21   D(7,2,3,8)             46.1091         estimate D2E/DX2                !
 ! D22   D(7,2,3,14)           -69.5488         estimate D2E/DX2                !
 ! D23   D(15,2,3,4)           -75.0416         estimate D2E/DX2                !
 ! D24   D(15,2,3,8)           167.1261         estimate D2E/DX2                !
 ! D25   D(15,2,3,14)           51.4682         estimate D2E/DX2                !
 ! D26   D(1,2,15,27)           75.4933         estimate D2E/DX2                !
 ! D27   D(3,2,15,27)         -160.4253         estimate D2E/DX2                !
 ! D28   D(7,2,15,27)          -41.1887         estimate D2E/DX2                !
 ! D29   D(2,3,4,5)            -53.451          estimate D2E/DX2                !
 ! D30   D(2,3,4,9)             66.0803         estimate D2E/DX2                !
 ! D31   D(2,3,4,13)          -171.2273         estimate D2E/DX2                !
 ! D32   D(8,3,4,5)             63.7631         estimate D2E/DX2                !
 ! D33   D(8,3,4,9)           -176.7057         estimate D2E/DX2                !
 ! D34   D(8,3,4,13)           -54.0132         estimate D2E/DX2                !
 ! D35   D(14,3,4,5)           179.9227         estimate D2E/DX2                !
 ! D36   D(14,3,4,9)           -60.546          estimate D2E/DX2                !
 ! D37   D(14,3,4,13)           62.1464         estimate D2E/DX2                !
 ! D38   D(2,3,14,23)          -41.0908         estimate D2E/DX2                !
 ! D39   D(4,3,14,23)           85.9299         estimate D2E/DX2                !
 ! D40   D(8,3,14,23)         -157.0127         estimate D2E/DX2                !
 ! D41   D(3,4,5,6)             54.673          estimate D2E/DX2                !
 ! D42   D(3,4,5,10)           172.6429         estimate D2E/DX2                !
 ! D43   D(3,4,5,12)           -66.4033         estimate D2E/DX2                !
 ! D44   D(9,4,5,6)            -65.6517         estimate D2E/DX2                !
 ! D45   D(9,4,5,10)            52.3181         estimate D2E/DX2                !
 ! D46   D(9,4,5,12)           173.272          estimate D2E/DX2                !
 ! D47   D(13,4,5,6)           175.0581         estimate D2E/DX2                !
 ! D48   D(13,4,5,10)          -66.9721         estimate D2E/DX2                !
 ! D49   D(13,4,5,12)           53.9818         estimate D2E/DX2                !
 ! D50   D(3,4,13,22)          -46.4335         estimate D2E/DX2                !
 ! D51   D(5,4,13,22)         -166.5435         estimate D2E/DX2                !
 ! D52   D(9,4,13,22)           75.681          estimate D2E/DX2                !
 ! D53   D(4,5,6,1)            -53.8222         estimate D2E/DX2                !
 ! D54   D(4,5,6,11)            66.6153         estimate D2E/DX2                !
 ! D55   D(4,5,6,16)          -174.62           estimate D2E/DX2                !
 ! D56   D(10,5,6,1)          -172.3378         estimate D2E/DX2                !
 ! D57   D(10,5,6,11)          -51.9003         estimate D2E/DX2                !
 ! D58   D(10,5,6,16)           66.8644         estimate D2E/DX2                !
 ! D59   D(12,5,6,1)            68.6032         estimate D2E/DX2                !
 ! D60   D(12,5,6,11)         -170.9593         estimate D2E/DX2                !
 ! D61   D(12,5,6,16)          -52.1947         estimate D2E/DX2                !
 ! D62   D(4,5,12,21)          -46.7931         estimate D2E/DX2                !
 ! D63   D(6,5,12,21)         -168.4667         estimate D2E/DX2                !
 ! D64   D(10,5,12,21)          73.6131         estimate D2E/DX2                !
 ! D65   D(1,6,16,17)           64.5844         estimate D2E/DX2                !
 ! D66   D(1,6,16,18)         -178.2639         estimate D2E/DX2                !
 ! D67   D(1,6,16,19)          -54.9522         estimate D2E/DX2                !
 ! D68   D(5,6,16,17)         -171.1935         estimate D2E/DX2                !
 ! D69   D(5,6,16,18)          -54.0418         estimate D2E/DX2                !
 ! D70   D(5,6,16,19)           69.27           estimate D2E/DX2                !
 ! D71   D(11,6,16,17)         -52.556          estimate D2E/DX2                !
 ! D72   D(11,6,16,18)          64.5957         estimate D2E/DX2                !
 ! D73   D(11,6,16,19)        -172.0925         estimate D2E/DX2                !
 ! D74   D(2,15,27,26)          26.6006         estimate D2E/DX2                !
 ! D75   D(2,15,27,28)         -98.8927         estimate D2E/DX2                !
 ! D76   D(2,15,27,32)         144.9927         estimate D2E/DX2                !
 ! D77   D(6,16,19,20)         -45.3116         estimate D2E/DX2                !
 ! D78   D(6,16,19,83)          94.5485         estimate D2E/DX2                !
 ! D79   D(17,16,19,20)       -166.5426         estimate D2E/DX2                !
 ! D80   D(17,16,19,83)        -26.6825         estimate D2E/DX2                !
 ! D81   D(18,16,19,20)         76.8992         estimate D2E/DX2                !
 ! D82   D(18,16,19,83)       -143.2406         estimate D2E/DX2                !
 ! D83   D(16,19,81,78)        107.6439         estimate D2E/DX2                !
 ! D84   D(16,19,81,82)         -9.5162         estimate D2E/DX2                !
 ! D85   D(16,19,81,84)       -128.3929         estimate D2E/DX2                !
 ! D86   D(20,19,81,78)       -119.7684         estimate D2E/DX2                !
 ! D87   D(20,19,81,82)        123.0715         estimate D2E/DX2                !
 ! D88   D(20,19,81,84)          4.1948         estimate D2E/DX2                !
 ! D89   D(29,24,25,26)        -51.3535         estimate D2E/DX2                !
 ! D90   D(29,24,25,30)         70.6404         estimate D2E/DX2                !
 ! D91   D(29,24,25,37)       -176.6506         estimate D2E/DX2                !
 ! D92   D(25,24,29,28)         64.6484         estimate D2E/DX2                !
 ! D93   D(25,24,29,34)        -55.1335         estimate D2E/DX2                !
 ! D94   D(25,24,29,38)       -172.5282         estimate D2E/DX2                !
 ! D95   D(24,25,26,27)         40.3389         estimate D2E/DX2                !
 ! D96   D(24,25,26,31)        -75.6543         estimate D2E/DX2                !
 ! D97   D(24,25,26,36)        164.068          estimate D2E/DX2                !
 ! D98   D(30,25,26,27)        -82.3174         estimate D2E/DX2                !
 ! D99   D(30,25,26,31)        161.6894         estimate D2E/DX2                !
 ! D100  D(30,25,26,36)         41.4117         estimate D2E/DX2                !
 ! D101  D(37,25,26,27)        162.6086         estimate D2E/DX2                !
 ! D102  D(37,25,26,31)         46.6153         estimate D2E/DX2                !
 ! D103  D(37,25,26,36)        -73.6623         estimate D2E/DX2                !
 ! D104  D(24,25,37,49)         82.6159         estimate D2E/DX2                !
 ! D105  D(26,25,37,49)        -43.3254         estimate D2E/DX2                !
 ! D106  D(30,25,37,49)       -160.9708         estimate D2E/DX2                !
 ! D107  D(25,26,27,15)       -168.6066         estimate D2E/DX2                !
 ! D108  D(25,26,27,28)        -43.2839         estimate D2E/DX2                !
 ! D109  D(25,26,27,32)         76.4159         estimate D2E/DX2                !
 ! D110  D(31,26,27,15)        -52.2921         estimate D2E/DX2                !
 ! D111  D(31,26,27,28)         73.0306         estimate D2E/DX2                !
 ! D112  D(31,26,27,32)       -167.2696         estimate D2E/DX2                !
 ! D113  D(36,26,27,15)         66.8339         estimate D2E/DX2                !
 ! D114  D(36,26,27,28)       -167.8434         estimate D2E/DX2                !
 ! D115  D(36,26,27,32)        -48.1437         estimate D2E/DX2                !
 ! D116  D(25,26,36,44)         66.5231         estimate D2E/DX2                !
 ! D117  D(27,26,36,44)       -167.3217         estimate D2E/DX2                !
 ! D118  D(31,26,36,44)        -51.2015         estimate D2E/DX2                !
 ! D119  D(15,27,28,29)       -177.7527         estimate D2E/DX2                !
 ! D120  D(15,27,28,33)        -58.4887         estimate D2E/DX2                !
 ! D121  D(15,27,28,35)         63.9002         estimate D2E/DX2                !
 ! D122  D(26,27,28,29)         55.3463         estimate D2E/DX2                !
 ! D123  D(26,27,28,33)        174.6103         estimate D2E/DX2                !
 ! D124  D(26,27,28,35)        -63.0008         estimate D2E/DX2                !
 ! D125  D(32,27,28,29)        -64.8161         estimate D2E/DX2                !
 ! D126  D(32,27,28,33)         54.4479         estimate D2E/DX2                !
 ! D127  D(32,27,28,35)        176.8368         estimate D2E/DX2                !
 ! D128  D(27,28,29,24)        -65.7624         estimate D2E/DX2                !
 ! D129  D(27,28,29,34)         55.1268         estimate D2E/DX2                !
 ! D130  D(27,28,29,38)        175.6059         estimate D2E/DX2                !
 ! D131  D(33,28,29,24)        174.8978         estimate D2E/DX2                !
 ! D132  D(33,28,29,34)        -64.2131         estimate D2E/DX2                !
 ! D133  D(33,28,29,38)         56.2661         estimate D2E/DX2                !
 ! D134  D(35,28,29,24)         55.838          estimate D2E/DX2                !
 ! D135  D(35,28,29,34)        176.7271         estimate D2E/DX2                !
 ! D136  D(35,28,29,38)        -62.7937         estimate D2E/DX2                !
 ! D137  D(27,28,35,43)        -25.7097         estimate D2E/DX2                !
 ! D138  D(27,28,35,63)         89.2849         estimate D2E/DX2                !
 ! D139  D(29,28,35,43)       -144.3725         estimate D2E/DX2                !
 ! D140  D(29,28,35,63)        -29.3779         estimate D2E/DX2                !
 ! D141  D(33,28,35,43)         96.6629         estimate D2E/DX2                !
 ! D142  D(33,28,35,63)       -148.3425         estimate D2E/DX2                !
 ! D143  D(24,29,38,39)        -60.5675         estimate D2E/DX2                !
 ! D144  D(24,29,38,40)         57.6652         estimate D2E/DX2                !
 ! D145  D(24,29,38,41)        178.3524         estimate D2E/DX2                !
 ! D146  D(28,29,38,39)         59.1962         estimate D2E/DX2                !
 ! D147  D(28,29,38,40)        177.4289         estimate D2E/DX2                !
 ! D148  D(28,29,38,41)        -61.8839         estimate D2E/DX2                !
 ! D149  D(34,29,38,39)       -179.7739         estimate D2E/DX2                !
 ! D150  D(34,29,38,40)        -61.5412         estimate D2E/DX2                !
 ! D151  D(34,29,38,41)         59.146          estimate D2E/DX2                !
 ! D152  D(28,35,63,62)       -160.6901         estimate D2E/DX2                !
 ! D153  D(43,35,63,62)        -42.1655         estimate D2E/DX2                !
 ! D154  D(26,36,44,56)         22.6977         estimate D2E/DX2                !
 ! D155  D(25,37,49,48)        127.1832         estimate D2E/DX2                !
 ! D156  D(25,37,49,50)       -109.8158         estimate D2E/DX2                !
 ! D157  D(25,37,49,55)          8.8025         estimate D2E/DX2                !
 ! D158  D(29,38,41,42)       -173.9568         estimate D2E/DX2                !
 ! D159  D(39,38,41,42)         66.3449         estimate D2E/DX2                !
 ! D160  D(40,38,41,42)        -55.955          estimate D2E/DX2                !
 ! D161  D(36,44,56,48)        -40.8928         estimate D2E/DX2                !
 ! D162  D(36,44,56,64)        149.9071         estimate D2E/DX2                !
 ! D163  D(50,45,46,47)        -52.8929         estimate D2E/DX2                !
 ! D164  D(50,45,46,51)         71.2899         estimate D2E/DX2                !
 ! D165  D(50,45,46,58)       -167.6607         estimate D2E/DX2                !
 ! D166  D(46,45,50,49)         57.9429         estimate D2E/DX2                !
 ! D167  D(46,45,50,54)        -63.4117         estimate D2E/DX2                !
 ! D168  D(46,45,50,59)        179.7295         estimate D2E/DX2                !
 ! D169  D(45,46,47,48)         46.9223         estimate D2E/DX2                !
 ! D170  D(45,46,47,52)        -70.7595         estimate D2E/DX2                !
 ! D171  D(45,46,47,57)        167.7169         estimate D2E/DX2                !
 ! D172  D(51,46,47,48)        -76.7313         estimate D2E/DX2                !
 ! D173  D(51,46,47,52)        165.5869         estimate D2E/DX2                !
 ! D174  D(51,46,47,57)         44.0633         estimate D2E/DX2                !
 ! D175  D(58,46,47,48)        161.9721         estimate D2E/DX2                !
 ! D176  D(58,46,47,52)         44.2903         estimate D2E/DX2                !
 ! D177  D(58,46,47,57)        -77.2333         estimate D2E/DX2                !
 ! D178  D(45,46,58,66)        -70.6279         estimate D2E/DX2                !
 ! D179  D(45,46,58,84)         36.8079         estimate D2E/DX2                !
 ! D180  D(47,46,58,66)        170.5545         estimate D2E/DX2                !
 ! D181  D(47,46,58,84)        -82.0096         estimate D2E/DX2                !
 ! D182  D(51,46,58,66)         49.5358         estimate D2E/DX2                !
 ! D183  D(51,46,58,84)        156.9717         estimate D2E/DX2                !
 ! D184  D(46,47,48,49)        -49.7639         estimate D2E/DX2                !
 ! D185  D(46,47,48,53)         70.856          estimate D2E/DX2                !
 ! D186  D(46,47,48,56)       -168.6054         estimate D2E/DX2                !
 ! D187  D(52,47,48,49)         67.6438         estimate D2E/DX2                !
 ! D188  D(52,47,48,53)       -171.7363         estimate D2E/DX2                !
 ! D189  D(52,47,48,56)        -51.1977         estimate D2E/DX2                !
 ! D190  D(57,47,48,49)       -173.578          estimate D2E/DX2                !
 ! D191  D(57,47,48,53)        -52.9581         estimate D2E/DX2                !
 ! D192  D(57,47,48,56)         67.5805         estimate D2E/DX2                !
 ! D193  D(46,47,57,65)         67.062          estimate D2E/DX2                !
 ! D194  D(48,47,57,65)       -168.8105         estimate D2E/DX2                !
 ! D195  D(52,47,57,65)        -52.2431         estimate D2E/DX2                !
 ! D196  D(47,48,49,37)       -179.94           estimate D2E/DX2                !
 ! D197  D(47,48,49,50)         55.6098         estimate D2E/DX2                !
 ! D198  D(47,48,49,55)        -59.1577         estimate D2E/DX2                !
 ! D199  D(53,48,49,37)         59.064          estimate D2E/DX2                !
 ! D200  D(53,48,49,50)        -65.3862         estimate D2E/DX2                !
 ! D201  D(53,48,49,55)        179.8463         estimate D2E/DX2                !
 ! D202  D(56,48,49,37)        -60.4088         estimate D2E/DX2                !
 ! D203  D(56,48,49,50)        175.141          estimate D2E/DX2                !
 ! D204  D(56,48,49,55)         60.3735         estimate D2E/DX2                !
 ! D205  D(47,48,56,44)        130.6481         estimate D2E/DX2                !
 ! D206  D(47,48,56,64)        -58.4436         estimate D2E/DX2                !
 ! D207  D(49,48,56,44)         10.6027         estimate D2E/DX2                !
 ! D208  D(49,48,56,64)       -178.489          estimate D2E/DX2                !
 ! D209  D(53,48,56,44)       -108.6467         estimate D2E/DX2                !
 ! D210  D(53,48,56,64)         62.2615         estimate D2E/DX2                !
 ! D211  D(37,49,50,45)       -179.1857         estimate D2E/DX2                !
 ! D212  D(37,49,50,54)        -57.6211         estimate D2E/DX2                !
 ! D213  D(37,49,50,59)         65.0132         estimate D2E/DX2                !
 ! D214  D(48,49,50,45)        -57.766          estimate D2E/DX2                !
 ! D215  D(48,49,50,54)         63.7987         estimate D2E/DX2                !
 ! D216  D(48,49,50,59)       -173.5671         estimate D2E/DX2                !
 ! D217  D(55,49,50,45)         58.5855         estimate D2E/DX2                !
 ! D218  D(55,49,50,54)       -179.8498         estimate D2E/DX2                !
 ! D219  D(55,49,50,59)        -57.2156         estimate D2E/DX2                !
 ! D220  D(45,50,59,60)         59.0511         estimate D2E/DX2                !
 ! D221  D(45,50,59,61)        177.9263         estimate D2E/DX2                !
 ! D222  D(45,50,59,62)        -58.9618         estimate D2E/DX2                !
 ! D223  D(49,50,59,60)        176.9004         estimate D2E/DX2                !
 ! D224  D(49,50,59,61)        -64.2243         estimate D2E/DX2                !
 ! D225  D(49,50,59,62)         58.8875         estimate D2E/DX2                !
 ! D226  D(54,50,59,60)        -59.3921         estimate D2E/DX2                !
 ! D227  D(54,50,59,61)         59.4832         estimate D2E/DX2                !
 ! D228  D(54,50,59,62)       -177.405          estimate D2E/DX2                !
 ! D229  D(46,58,66,67)        -68.718          estimate D2E/DX2                !
 ! D230  D(46,58,66,68)         48.7823         estimate D2E/DX2                !
 ! D231  D(46,58,66,69)        171.2929         estimate D2E/DX2                !
 ! D232  D(84,58,66,67)       -169.2018         estimate D2E/DX2                !
 ! D233  D(84,58,66,68)        -51.7015         estimate D2E/DX2                !
 ! D234  D(84,58,66,69)         70.809          estimate D2E/DX2                !
 ! D235  D(46,58,84,81)        -89.2185         estimate D2E/DX2                !
 ! D236  D(66,58,84,81)         27.646          estimate D2E/DX2                !
 ! D237  D(50,59,62,63)        -99.6564         estimate D2E/DX2                !
 ! D238  D(50,59,62,82)         40.9587         estimate D2E/DX2                !
 ! D239  D(60,59,62,63)        141.919          estimate D2E/DX2                !
 ! D240  D(60,59,62,82)        -77.466          estimate D2E/DX2                !
 ! D241  D(61,59,62,63)         23.1263         estimate D2E/DX2                !
 ! D242  D(61,59,62,82)        163.7414         estimate D2E/DX2                !
 ! D243  D(59,62,63,35)        168.2433         estimate D2E/DX2                !
 ! D244  D(82,62,63,35)         25.2636         estimate D2E/DX2                !
 ! D245  D(59,62,81,78)         77.5687         estimate D2E/DX2                !
 ! D246  D(59,62,81,83)       -159.829          estimate D2E/DX2                !
 ! D247  D(59,62,81,84)        -38.0566         estimate D2E/DX2                !
 ! D248  D(63,62,81,78)       -141.6541         estimate D2E/DX2                !
 ! D249  D(63,62,81,83)        -19.0518         estimate D2E/DX2                !
 ! D250  D(63,62,81,84)        102.7206         estimate D2E/DX2                !
 ! D251  D(58,66,69,70)       -174.3074         estimate D2E/DX2                !
 ! D252  D(58,66,69,71)         71.7851         estimate D2E/DX2                !
 ! D253  D(58,66,69,72)        -49.7924         estimate D2E/DX2                !
 ! D254  D(67,66,69,70)         66.4793         estimate D2E/DX2                !
 ! D255  D(67,66,69,71)        -47.4282         estimate D2E/DX2                !
 ! D256  D(67,66,69,72)       -169.0057         estimate D2E/DX2                !
 ! D257  D(68,66,69,70)        -53.7439         estimate D2E/DX2                !
 ! D258  D(68,66,69,71)       -167.6514         estimate D2E/DX2                !
 ! D259  D(68,66,69,72)         70.7711         estimate D2E/DX2                !
 ! D260  D(66,69,72,73)         57.3517         estimate D2E/DX2                !
 ! D261  D(66,69,72,74)        169.5614         estimate D2E/DX2                !
 ! D262  D(66,69,72,75)        -70.6049         estimate D2E/DX2                !
 ! D263  D(70,69,72,73)       -179.5128         estimate D2E/DX2                !
 ! D264  D(70,69,72,74)        -67.303          estimate D2E/DX2                !
 ! D265  D(70,69,72,75)         52.5306         estimate D2E/DX2                !
 ! D266  D(71,69,72,73)        -64.6047         estimate D2E/DX2                !
 ! D267  D(71,69,72,74)         47.6051         estimate D2E/DX2                !
 ! D268  D(71,69,72,75)        167.4387         estimate D2E/DX2                !
 ! D269  D(69,72,75,76)       -167.3625         estimate D2E/DX2                !
 ! D270  D(69,72,75,77)        -52.7351         estimate D2E/DX2                !
 ! D271  D(69,72,75,78)         69.693          estimate D2E/DX2                !
 ! D272  D(73,72,75,76)         65.3863         estimate D2E/DX2                !
 ! D273  D(73,72,75,77)       -179.9863         estimate D2E/DX2                !
 ! D274  D(73,72,75,78)        -57.5582         estimate D2E/DX2                !
 ! D275  D(74,72,75,76)        -47.2641         estimate D2E/DX2                !
 ! D276  D(74,72,75,77)         67.3633         estimate D2E/DX2                !
 ! D277  D(74,72,75,78)       -170.2087         estimate D2E/DX2                !
 ! D278  D(72,75,78,79)        -66.5023         estimate D2E/DX2                !
 ! D279  D(72,75,78,80)        173.2975         estimate D2E/DX2                !
 ! D280  D(72,75,78,81)         53.9572         estimate D2E/DX2                !
 ! D281  D(76,75,78,79)        170.6106         estimate D2E/DX2                !
 ! D282  D(76,75,78,80)         50.4104         estimate D2E/DX2                !
 ! D283  D(76,75,78,81)        -68.9299         estimate D2E/DX2                !
 ! D284  D(77,75,78,79)         57.3935         estimate D2E/DX2                !
 ! D285  D(77,75,78,80)        -62.8067         estimate D2E/DX2                !
 ! D286  D(77,75,78,81)        177.853          estimate D2E/DX2                !
 ! D287  D(75,78,81,82)       -174.5119         estimate D2E/DX2                !
 ! D288  D(75,78,81,83)         63.1601         estimate D2E/DX2                !
 ! D289  D(75,78,81,84)        -59.2865         estimate D2E/DX2                !
 ! D290  D(79,78,81,82)        -50.3835         estimate D2E/DX2                !
 ! D291  D(79,78,81,83)       -172.7114         estimate D2E/DX2                !
 ! D292  D(79,78,81,84)         64.842          estimate D2E/DX2                !
 ! D293  D(80,78,81,82)         64.0733         estimate D2E/DX2                !
 ! D294  D(80,78,81,83)        -58.2546         estimate D2E/DX2                !
 ! D295  D(80,78,81,84)        179.2987         estimate D2E/DX2                !
 ! D296  D(78,81,84,58)        -33.6733         estimate D2E/DX2                !
 ! D297  D(82,81,84,58)         83.5266         estimate D2E/DX2                !
 ! D298  D(83,81,84,58)       -157.0323         estimate D2E/DX2                !
 --------------------------------------------------------------------------------
 Trust Radius=3.00D-01 FncErr=1.00D-07 GrdErr=1.00D-06
 Number of steps in this run=    504 maximum allowed number of steps=    504.
 GradGradGradGradGradGradGradGradGradGradGradGradGradGradGradGradGradGrad

 Leave Link  103 at Wed Apr  6 15:55:05 2016, MaxMem= 10737418240 cpu:         1.1
 (Enter /share/apps//g09/l202.exe)
 Stoichiometry    C23H44NO16(1+)
 Framework group  C1[X(C23H44NO16)]
 Deg. of freedom   246
 Full point group                 C1      NOp   1
 Largest Abelian subgroup         C1      NOp   1
 Largest concise Abelian subgroup C1      NOp   1
                         Standard orientation:                         
 ---------------------------------------------------------------------
 Center     Atomic      Atomic             Coordinates (Angstroms)
 Number     Number       Type             X           Y           Z
 ---------------------------------------------------------------------
      1          8           0       -1.652382    1.316792   -0.086718
      2          6           0       -2.413812    0.832680    1.048207
      3          6           0       -3.169534    1.971660    1.746084
      4          6           0       -3.969829    2.833035    0.764326
      5          6           0       -3.065898    3.335875   -0.363166
      6          6           0       -2.367337    2.160975   -1.037523
      7          1           0       -1.653592    0.447139    1.739498
      8          1           0       -2.407753    2.616169    2.212237
      9          1           0       -4.786273    2.232444    0.318019
     10          1           0       -3.692422    3.839936   -1.123288
     11          1           0       -3.145938    1.563401   -1.547671
     12          8           0       -2.074408    4.250720    0.130528
     13          8           0       -4.490121    3.990235    1.413459
     14          8           0       -3.985223    1.492170    2.805827
     15          8           0       -3.337551   -0.170354    0.693991
     16          6           0       -1.342813    2.580922   -2.092886
     17          1           0       -0.993849    1.696885   -2.646613
     18          1           0       -1.839401    3.249320   -2.816757
     19          8           0       -0.176685    3.213385   -1.541619
     20          1           0       -0.507644    3.861170   -0.877886
     21          1           0       -2.545333    4.881587    0.709641
     22          1           0       -4.886868    3.695029    2.255341
     23          1           0       -4.405204    0.666834    2.491409
     24          8           0       -0.920446   -3.341107   -0.776965
     25          6           0       -0.860741   -3.163775    0.640283
     26          6           0       -1.535924   -1.854205    1.137801
     27          6           0       -2.841178   -1.525760    0.417642
     28          6           0       -2.707376   -1.754822   -1.091232
     29          6           0       -2.242053   -3.198458   -1.310014
     30          1           0       -1.339801   -4.021711    1.145734
     31          1           0       -0.842435   -1.034520    0.890432
     32          1           0       -3.642685   -2.176334    0.801066
     33          1           0       -3.685199   -1.605190   -1.577022
     34          1           0       -2.947043   -3.885585   -0.802747
     35          8           0       -1.727500   -0.890036   -1.696632
     36          8           0       -1.768818   -1.904531    2.530624
     37          8           0        0.501980   -3.253167    1.015061
     38          6           0       -2.168221   -3.598691   -2.781605
     39          1           0       -1.466937   -2.930857   -3.313471
     40          1           0       -1.782078   -4.630638   -2.836560
     41          8           0       -3.494492   -3.491692   -3.296000
     42          1           0       -3.502187   -3.831113   -4.205763
     43          1           0       -1.655062   -0.081677   -1.132513
     44          1           0       -0.888443   -1.911128    2.969384
     45          8           0        3.181331   -1.026694   -0.250872
     46          6           0        3.875648   -0.679293    0.951913
     47          6           0        2.933605   -0.642704    2.160928
     48          6           0        2.023178   -1.864938    2.237190
     49          6           0        1.342938   -2.100199    0.889855
     50          6           0        2.387446   -2.230758   -0.234435
     51          1           0        4.720634   -1.377673    1.122898
     52          1           0        2.283018    0.246245    2.034862
     53          1           0        2.613317   -2.759271    2.510935
     54          1           0        3.024385   -3.121521   -0.071794
     55          1           0        0.762176   -1.199202    0.643463
     56          8           0        1.004237   -1.638183    3.220670
     57          8           0        3.641578   -0.576960    3.394141
     58          8           0        4.322452    0.640739    0.778050
     59          6           0        1.784170   -2.312807   -1.635784
     60          1           0        2.611621   -2.346632   -2.359603
     61          1           0        1.187027   -3.227143   -1.729104
     62          8           0        0.985890   -1.159772   -1.954088
     63          1           0        0.018081   -1.350508   -1.830874
     64          1           0        1.455261   -1.466134    4.067536
     65          1           0        4.092316    0.284714    3.444250
     66          6           0        5.396518    0.804459   -0.184082
     67          1           0        6.314069    0.344058    0.220137
     68          1           0        5.133481    0.273417   -1.110939
     69          6           0        5.612466    2.296688   -0.414515
     70          1           0        6.356984    2.400137   -1.221102
     71          1           0        6.082793    2.717886    0.487644
     72          6           0        4.370756    3.152651   -0.728495
     73          1           0        3.641646    3.043927    0.091832
     74          1           0        4.689733    4.204333   -0.673203
     75          6           0        3.677625    2.985768   -2.094236
     76          1           0        2.971706    3.822507   -2.221608
     77          1           0        4.419719    3.096999   -2.901397
     78          6           0        2.924043    1.683372   -2.367634
     79          1           0        3.588330    0.812852   -2.423516
     80          1           0        2.383992    1.748438   -3.321389
     81          7           0        1.903085    1.363904   -1.315477
     82          1           0        1.487981    0.407143   -1.515482
     83          1           0        1.141417    2.092077   -1.272142
     84          1           0        2.374059    1.282443   -0.402908
 ---------------------------------------------------------------------
 Rotational constants (GHZ):      0.1001936      0.0746618      0.0608484
 Leave Link  202 at Wed Apr  6 15:55:07 2016, MaxMem= 10737418240 cpu:         5.2
 (Enter /share/apps//g09/l301.exe)
 Standard basis: 6-311+G(d,p) (5D, 7F)
 Ernie: Thresh=  0.10000D-02 Tol=  0.10000D-05 Strict=F.
 There are  1184 symmetry adapted cartesian basis functions of A   symmetry.
 There are  1144 symmetry adapted basis functions of A   symmetry.
  1144 basis functions,  1792 primitive gaussians,  1184 cartesian basis functions
   158 alpha electrons      158 beta electrons
       nuclear repulsion energy      5909.9608000240 Hartrees.
 IExCor= 1009 DFT=T Ex+Corr=PBE1PBE ExCW=0 ScaHFX=  0.250000
 ScaDFX=  0.750000  0.750000  1.000000  1.000000 ScalE2=  1.000000  1.000000
 IRadAn=      0 IRanWt=     -1 IRanGd=            0 ICorTp=0 IEmpDi=131
 NAtoms=   84 NActive=   84 NUniq=   84 SFac= 1.00D+00 NAtFMM=   60 NAOKFM=T Big=T
 Integral buffers will be    131072 words long.
 Raffenetti 2 integral format.
 Two-electron integral symmetry is turned on.
 R6Disp:  Grimme-D3 Dispersion energy=       -0.0851012234 Hartrees.
 Nuclear repulsion after empirical dispersion term =     5909.8756988006 Hartrees.
 Leave Link  301 at Wed Apr  6 15:55:08 2016, MaxMem= 10737418240 cpu:         2.9
 (Enter /share/apps//g09/l302.exe)
 NPDir=0 NMtPBC=     1 NCelOv=     1 NCel=       1 NClECP=     1 NCelD=      1
         NCelK=      1 NCelE2=     1 NClLst=     1 CellRange=     0.0.
 One-electron integrals computed using PRISM.
 NBasis=  1144 RedAO= T EigKep=  1.19D-06  NBF=  1144
 NBsUse=  1144 1.00D-06 EigRej= -1.00D+00 NBFU=  1144
 Precomputing XC quadrature grid using
 IXCGrd= 4 IRadAn=           0 IRanWt=          -1 IRanGd=           0 AccXCQ= 0.00D+00.
 Generated NRdTot=       0 NPtTot=           0 NUsed=           0 NTot=          32
 NSgBfM=  1076  1076  1083  1083  1084 MxSgAt=    84 MxSgA2=    84.
 Leave Link  302 at Wed Apr  6 15:55:14 2016, MaxMem= 10737418240 cpu:        74.9
 (Enter /share/apps//g09/l303.exe)
 DipDrv:  MaxL=1.
 Leave Link  303 at Wed Apr  6 15:55:17 2016, MaxMem= 10737418240 cpu:        35.2
 (Enter /share/apps//g09/l401.exe)
 ExpMin= 4.38D-02 ExpMax= 8.59D+03 ExpMxC= 1.30D+03 IAcc=2 IRadAn=         4 AccDes= 0.00D+00
 Harris functional with IExCor= 1009 and IRadAn=       4 diagonalized for initial guess.
 HarFok:  IExCor= 1009 AccDes= 0.00D+00 IRadAn=         4 IDoV= 1 UseB2=F ITyADJ=14
 ICtDFT=  3500011 ScaDFX=  1.000000  1.000000  1.000000  1.000000
 FoFCou: FMM=F IPFlag=           0 FMFlag=      100000 FMFlg1=        2001
         NFxFlg=           0 DoJE=T BraDBF=F KetDBF=T FulRan=T
         wScrn=  0.000000 ICntrl=     500 IOpCl=  0 I1Cent=   200000004 NGrid=           0
         NMat0=    1 NMatS0=      1 NMatT0=    0 NMatD0=    1 NMtDS0=    0 NMtDT0=    0
 Petite list used in FoFCou.
 Harris En= -2159.70621201251    
 JPrj=0 DoOrth=F DoCkMO=F.
 Leave Link  401 at Wed Apr  6 15:55:24 2016, MaxMem= 10737418240 cpu:       127.7
 (Enter /share/apps//g09/l502.exe)
 Closed shell SCF:
 Using DIIS extrapolation, IDIIS=  1040.
 Integral symmetry usage will be decided dynamically.
 IVT=     4256630 IEndB=     4256630 NGot= 10737418240 MDV= 10734581291
 LenX= 10734581291 LenY= 10733178251
 Requested convergence on RMS density matrix=1.00D-08 within 128 cycles.
 Requested convergence on MAX density matrix=1.00D-06.
 Requested convergence on             energy=1.00D-06.
 No special actions if energy rises.
 Fock matrices will be formed incrementally for  20 cycles.

 Cycle   1  Pass 1  IDiag  1:
 FoFJK:  IHMeth= 1 ICntrl=       0 DoSepK=F KAlg= 0 I1Cent=   0 FoldK=F
 IRaf= 790000000 NMat=   1 IRICut=       1 DoRegI=T DoRafI=F ISym2E= 0.
 FoFCou: FMM=T IPFlag=           0 FMFlag=      100000 FMFlg1=        2001
         NFxFlg=           0 DoJE=F BraDBF=F KetDBF=F FulRan=T
         wScrn=  0.000000 ICntrl=       0 IOpCl=  0 I1Cent=           0 NGrid=           0
         NMat0=    1 NMatS0=      1 NMatT0=    0 NMatD0=    1 NMtDS0=    0 NMtDT0=    0
 Symmetry not used in FoFCou.
 FMM levels:  10  Number of levels for PrismC:   9
 E= -2158.69427161058    
 DIIS: error= 1.52D-02 at cycle   1 NSaved=   1.
 NSaved= 1 IEnMin= 1 EnMin= -2158.69427161058     IErMin= 1 ErrMin= 1.52D-02
 ErrMax= 1.52D-02  0.00D+00 EMaxC= 1.00D-01 BMatC= 1.02D+00 BMatP= 1.02D+00
 IDIUse=3 WtCom= 8.48D-01 WtEn= 1.52D-01
 Coeff-Com:  0.100D+01
 Coeff-En:   0.100D+01
 Coeff:      0.100D+01
 Gap=     0.286 Goal=   None    Shift=    0.000
 GapD=    0.286 DampG=1.000 DampE=0.500 DampFc=0.5000 IDamp=-1.
 Damping current iteration by 5.00D-01
 RMSDP=1.31D-02 MaxDP=2.75D+00              OVMax= 1.42D-01

 Cycle   2  Pass 1  IDiag  1:
 RMSU=  6.39D-03    CP:  1.03D+00
 E= -2158.97323765520     Delta-E=       -0.278966044619 Rises=F Damp=T
 DIIS: error= 4.02D-03 at cycle   2 NSaved=   2.
 NSaved= 2 IEnMin= 2 EnMin= -2158.97323765520     IErMin= 2 ErrMin= 4.02D-03
 ErrMax= 4.02D-03  0.00D+00 EMaxC= 1.00D-01 BMatC= 8.25D-02 BMatP= 1.02D+00
 IDIUse=3 WtCom= 9.60D-01 WtEn= 4.02D-02
 Coeff-Com:  0.641D-01 0.936D+00
 Coeff-En:   0.164D+00 0.836D+00
 Coeff:      0.681D-01 0.932D+00
 Gap=     0.301 Goal=   None    Shift=    0.000
 RMSDP=5.86D-03 MaxDP=2.43D+00 DE=-2.79D-01 OVMax= 8.44D-02

 Cycle   3  Pass 1  IDiag  1:
 RMSU=  2.90D-03    CP:  9.25D-01  8.57D-01
 E= -2159.34280519531     Delta-E=       -0.369567540110 Rises=F Damp=F
 DIIS: error= 3.79D-03 at cycle   3 NSaved=   3.
 NSaved= 3 IEnMin= 3 EnMin= -2159.34280519531     IErMin= 3 ErrMin= 3.79D-03
 ErrMax= 3.79D-03  0.00D+00 EMaxC= 1.00D-01 BMatC= 4.55D-02 BMatP= 8.25D-02
 IDIUse=3 WtCom= 9.62D-01 WtEn= 3.79D-02
 Coeff-Com: -0.655D-01 0.408D+00 0.657D+00
 Coeff-En:   0.000D+00 0.000D+00 0.100D+01
 Coeff:     -0.630D-01 0.393D+00 0.670D+00
 Gap=     0.281 Goal=   None    Shift=    0.000
 RMSDP=1.39D-03 MaxDP=4.28D-01 DE=-3.70D-01 OVMax= 1.72D-02

 Cycle   4  Pass 1  IDiag  1:
 RMSU=  1.15D-03    CP:  9.37D-01  9.40D-01  9.63D-01
 E= -2159.37122210261     Delta-E=       -0.028416907301 Rises=F Damp=F
 DIIS: error= 1.28D-03 at cycle   4 NSaved=   4.
 NSaved= 4 IEnMin= 4 EnMin= -2159.37122210261     IErMin= 4 ErrMin= 1.28D-03
 ErrMax= 1.28D-03  0.00D+00 EMaxC= 1.00D-01 BMatC= 6.10D-03 BMatP= 4.55D-02
 IDIUse=3 WtCom= 9.87D-01 WtEn= 1.28D-02
 Coeff-Com: -0.354D-01 0.123D+00 0.342D+00 0.570D+00
 Coeff-En:   0.000D+00 0.000D+00 0.785D-01 0.922D+00
 Coeff:     -0.350D-01 0.122D+00 0.339D+00 0.574D+00
 Gap=     0.274 Goal=   None    Shift=    0.000
 RMSDP=1.12D-03 MaxDP=3.98D-01 DE=-2.84D-02 OVMax= 6.73D-03

 Cycle   5  Pass 1  IDiag  1:
 RMSU=  3.79D-04    CP:  9.17D-01  9.17D-01  9.30D-01  5.53D-01
 E= -2159.37633759544     Delta-E=       -0.005115492830 Rises=F Damp=F
 DIIS: error= 3.68D-04 at cycle   5 NSaved=   5.
 NSaved= 5 IEnMin= 5 EnMin= -2159.37633759544     IErMin= 5 ErrMin= 3.68D-04
 ErrMax= 3.68D-04  0.00D+00 EMaxC= 1.00D-01 BMatC= 2.99D-04 BMatP= 6.10D-03
 IDIUse=3 WtCom= 9.96D-01 WtEn= 3.68D-03
 Coeff-Com: -0.114D-01 0.270D-01 0.105D+00 0.258D+00 0.621D+00
[...]
 -0.00003542,-0.00003498,-0.00003342,-0.00003142,0.00001276,0.00001458,
 -0.00003333,0.00000869,-0.00004671,-0.00033129,-0.00059070,-0.00063294
 ,-0.00019784,0.00000058,-0.00017274,-0.00033006,0.00055226,-0.00023320
 ,0.00005770,-0.00004526,0.00003611,0.00002906,0.00002726,0.00003205,0.
 00000946,-0.00002694,-0.00003478,-0.00012058,-0.00001184,-0.00008718,0
 .00001175,0.00002952,0.00002168,0.00022116,0.00059598,0.00047175,0.000
 16437,-0.00011955,0.00012736,0.00026464,0.00002179,-0.00014609,-0.0000
 7441,-0.00009774,0.00002798,-0.00037629,-0.00011181,-0.00024895,-0.000
 02674,-0.00018955,0.00023184,0.00003540,-0.00040852,-0.00010189,-0.000
 05148,-0.00043969,-0.00021439,0.00002375,-0.00000928,0.00003802,0.0000
 4716,-0.00000329,0.00017183,0.00000531,0.00005160,-0.00001767,0.000042
 08,0.00001802,0.00001972,0.00005706,-0.00009024,0.00012915,0.00001357,
 0.00028843,-0.00024281,0.00031571,0.00010133,-0.00001405,-0.00023248,0
 .00037119,-0.00007993,-0.00034269,-0.00011569,-0.00030712,0.00005199,-
 0.00002255,-0.00004434,0.00008192,0.00004782,0.00012490,-0.00150551,0.
 00250072,0.00038925,0.00056309,-0.00010740,0.00096815,-0.00003081,-0.0
 0007550,0.00002694,-0.00010629,-0.00001129,0.00001547,-0.00012233,-0.0
 0015113,0.00025952,0.00010783,0.00004374,-0.00003845,-0.00003123,-0.00
 006657,-0.00014852,-0.00019478,-0.00014861,0.00008114,0.00004636,0.000
 03823,0.00011110,0.00005593,-0.00000101,-0.00001030,0.00000454,0.00026
 950,-0.00059826,-0.00041380,-0.00005770,0.00033572,0.00012857,-0.00019
 664,0.00013039,-0.00028631,0.00055844,0.00016750,0.00025261,-0.0002351
 3,-0.00040886,0.00001445,-0.00026410,-0.00002123,0.00716065,0.00643968
 ,0.00952995,-0.00040290,-0.00311734,0.00259220,-0.00017632,-0.00020906
 ,0.00113493,-0.11792369,-0.01495907,-0.10239904,0.00816543,-0.00520672
 ,0.01124254,0.12154669,-0.00038955,0.00052678,-0.00071455,-0.00035761,
 -0.00075672,0.00011077,0.00003178,0.00008737,0.00011498,0.00005284,-0.
 00000544,0.00008609,-0.00015961,0.00022760,0.00000755,0.00144472,-0.00
 008897,0.00024401,-0.00002531,-0.00003452,0.00000170,0.00000026,0.0000
 0810,0.00001085,-0.00000477,-0.00001245,0.00000020,0.00000628,-0.00004
 528,-0.00005745,-0.00019823,-0.00018757,0.00007398,0.00005701,-0.00021
 337,0.00011667,-0.00002544,-0.00004725,-0.00011638,-0.00001009,0.00004
 753,-0.00017027,-0.00009421,0.00034808,-0.00000342,0.00090601,0.000976
 36,0.00357354,0.00075927,-0.00009198,-0.00032085,0.00020807,-0.0003702
 0,-0.00014860,0.00063864,-0.00639114,-0.00261955,-0.00011808,-0.000774
 24,-0.00008796,0.00000628,0.00000480,0.00001144,0.00001232,0.00000547,
 0.00002630,0.00000989,-0.00002210,0.00005054,0.00000741,0.00001221,0.0
 0006728,-0.00004520,0.00000392,-0.00011338,-0.00003748,-0.00018181,0.0
 0005834,-0.00001153,-0.00002789,-0.00007634,-0.00000589,-0.00024336,0.
 00005304,-0.00001767,-0.00000733,-0.00005426,0.00000501,0.00000730,0.0
 0002249,-0.00003189,0.00001067,-0.00001710,0.00000425,0.00002106,-0.00
 000134,-0.00000196,0.00004860,-0.00001508,0.00001094,0.00001157,0.0000
 1660,-0.00013176,0.00041009,0.00007829,0.00010988,0.00010690,-0.000002
 94,0.00007007,-0.00000103,0.00013057,0.00004594,-0.00001689,-0.0000038
 5,-0.00000094,-0.00000004,-0.00001628,-0.00000789,0.00001013,0.0000096
 2,-0.00005031,0.00002497,0.00001239,0.00001526,-0.00000641,-0.00000276
 ,0.00034757,-0.00050152,0.00007110,-0.00006186,-0.00000727,-0.00002947
 ,-0.00071708,-0.00044376,-0.00044280,0.00018164,-0.00012085,-0.0002102
 6,-0.00014978,-0.00001326,-0.00015899,-0.00000172,0.00004227,0.,-0.000
 11539,-0.00003857,-0.00020662,-0.00003956,0.00036299,0.00002971,-0.000
 08326,0.00000310,0.00003244,-0.00000263,0.00003834,0.00006731,0.000024
 96,0.00000967,0.00000530,0.00000813,-0.00009223,0.00000206,0.00002175,
 -0.00000444,0.00001021,0.00005501,-0.00001813,0.00005426,0.00011244,-0
 .00005568,0.00006869,0.00020428,-0.00008984,0.00004109,-0.00021950,0.0
 0006935,0.00004624,0.00000626,-0.00000912,0.00002934,0.00002440,-0.000
 00321,-0.00000745,0.00127012,-0.00144018,0.00053709,0.00004717,-0.0002
 9342,-0.00060653,-0.00002147,-0.00000034,0.00000166,-0.00001254,0.0000
 3596,-0.00001262,-0.00014517,0.00025133,0.00008252,0.00004057,-0.00007
 363,-0.00004191,-0.00000772,-0.00007088,-0.00010921,-0.00008503,0.0001
 5593,0.00010048,-0.00003353,-0.00000131,-0.00005034,-0.00006542,-0.000
 02340,-0.00007667,0.00007316,-0.00028731,-0.00021639,0.00026135,0.0000
 8893,0.00000432,0.00004058,-0.00001233,-0.00005491,0.00102298,0.001294
 82,0.00107260,-0.00043747,-0.00089020,-0.00078353,-0.00037546,0.000078
 63,-0.00055738,0.01386739,0.00672704,0.02530586,-0.00169340,-0.0042587
 2,0.00334611,-0.00018436,0.00089700,-0.00058459,-0.01671890,-0.0695056
 3,-0.03843054,-0.01700482,0.00240634,-0.02435336,0.01742985,0.07456231
 ,-0.00116638,-0.00248323,-0.00002591,0.00052228,0.00231265,-0.00038344
 ,0.00023680,0.00033774,-0.00005073,0.00006907,0.00032409,-0.00033788,-
 0.00075822,0.00080029,-0.00041861,0.00205027,0.00054259,-0.00060994,-0
 .00006893,-0.00012923,0.00014354,0.00009791,0.00003020,-0.00007704,-0.
 00001985,-0.00006009,0.00005085,0.00003997,-0.00012170,-0.00011649,-0.
 00020444,-0.00062361,0.00038640,-0.00005513,-0.00095787,0.00197964,-0.
 00018570,-0.00039933,0.00055699,-0.00031942,-0.00065333,0.00018626,0.0
 0009461,-0.00152964,-0.00078018,-0.00684242,0.00841613,0.00371711,0.00
 088198,-0.00098783,-0.00035072,0.00231765,-0.00176107,0.00045009,0.006
 29764,-0.00353023,0.00267425,0.00374239,-0.00054711,-0.00367348,0.0003
 1432,-0.00031331,-0.00020801,0.00007536,0.00007189,-0.00008493,0.00005
 110,0.00015169,0.00006803,-0.00046365,0.00030227,-0.00042493,0.0006082
 5,-0.00038084,0.00072736,-0.00010289,-0.00007147,-0.00013090,0.0002239
 3,0.00054426,0.00098002,-0.00003895,0.00015522,-0.00018466,0.00045468,
 -0.00006783,0.00034625,-0.00005168,0.00005437,-0.00007991,0.00009520,0
 .00001148,0.00023447,-0.00003056,-0.00006803,-0.00008738,-0.00005957,0
 .00006944,0.00001425,-0.00004460,0.00003593,-0.00006295,-0.00036560,-0
 .00047616,-0.00123413,-0.00024238,-0.00005047,-0.00037797,-0.00051271,
 0.00094533,-0.00052066,0.00009179,-0.00015579,0.00007245,0.00004590,0.
 00005880,0.00003226,0.00002172,-0.00003065,-0.00005919,-0.00020022,0.0
 0004186,-0.00015020,0.00002402,0.00001501,0.00002910,0.00006751,0.0007
 4732,0.00123500,0.00025864,-0.00014213,0.00025170,0.00096413,0.0016939
 2,0.00113824,-0.00150122,-0.00087474,-0.00027168,-0.00040722,-0.000103
 17,0.00004774,-0.00015080,-0.00036920,0.00042778,0.00009812,-0.0006713
 1,0.00004212,0.00041147,-0.00130781,-0.00018174,0.00020912,0.00011828,
 0.00010928,0.00001367,-0.00004280,0.00024918,0.00000145,0.00004161,-0.
 00005131,0.00008053,0.00024546,0.00005379,0.00001335,-0.00016227,0.000
 24178,0.00005628,0.00045828,-0.00060749,0.00051488,0.00020525,-0.00030
 171,0.00174210,0.00013961,0.00070196,-0.00075581,-0.00001254,-0.000738
 83,0.00010440,-0.00003176,-0.00003667,0.00013071,0.00006488,0.00025646
 ,-0.00088236,0.00274707,0.00124601,0.00080450,-0.00071477,0.00120224,-
 0.00003484,-0.00007553,0.00009097,-0.00016392,-0.00003256,0.00019565,-
 0.00031214,0.00057807,-0.00033730,0.00016102,-0.00005137,0.00007479,-0
 .00007020,-0.00005887,-0.00021789,-0.00006434,0.00010348,-0.00015896,-
 0.00005822,-0.00001242,0.00001547,0.00012515,-0.00001314,0.00001618,-0
 .00046582,-0.00022430,-0.00027388,-0.00008072,0.00029448,0.00032741,0.
 00023484,-0.00030162,0.00008362,-0.00028325,0.00037237,0.00248007,-0.0
 0018553,0.00022016,-0.00010651,0.00039431,-0.00084833,-0.00019130,-0.0
 0383972,0.00308004,-0.01822778,0.00092441,0.00103437,0.00066697,0.0000
 3376,-0.00118786,0.00068784,-0.10627463,-0.03705323,-0.28366622,-0.001
 72835,-0.00492161,-0.00929777,0.10248029,0.03603762,0.28949434,-0.0001
 3663,-0.00050699,0.00028458,0.00024356,0.00060502,-0.00013360,0.000053
 32,0.00004077,-0.00004957,0.00000061,0.00007184,-0.00008775,-0.0000557
 5,0.00001648,-0.00007846,0.00008594,0.00004827,-0.00006886,0.00000287,
 -0.00000965,0.00001731,0.00001910,0.00000818,-0.00000831,-0.00000672,-
 0.00000299,0.00000559,-0.00000191,-0.00000761,-0.00000444,0.00000594,-
 0.00004182,0.00003344,-0.00004443,-0.00008314,0.00025562,-0.00004349,-
 0.00005839,0.00014029,-0.00007889,-0.00013725,0.00008790,-0.00002637,-
 0.00031251,-0.00008854,-0.00049489,0.00052076,-0.00000320,-0.00006403,
 0.00002290,0.00002684,0.00014237,-0.00009363,0.00008166,0.00106874,-0.
 00020388,0.00089466,0.00011177,-0.00007028,-0.00035075,0.00005592,-0.0
 0002779,-0.00004352,0.00001870,0.00001199,-0.00002086,0.00001836,0.000
 03417,-0.00000760,-0.00031257,-0.00011036,-0.00000704,0.00053856,-0.00
 005391,0.00016951,0.00007487,0.00015038,-0.00011231,0.00008513,0.00006
 185,0.00013248,0.00000450,0.00029816,-0.00006657,0.00007887,0.00000350
 ,0.00009078,-0.00004604,0.00000266,-0.00002145,0.00005213,0.00000409,0
 .00002800,-0.00001593,-0.00001912,-0.00000303,-0.00000985,-0.00004395,
 0.00001898,-0.00001011,-0.00001977,-0.00001386,0.00005337,-0.00043359,
 0.00003564,-0.00030273,-0.00004885,-0.00002664,-0.00050359,0.00039693,
 -0.00025037,-0.00000825,0.00007681,-0.00001788,-0.00001285,-0.00001359
 ,0.00002257,0.00000330,-0.00001817,-0.00001177,0.00000365,-0.00005912,
 -0.00000720,-0.00000919,0.00002717,0.00000839,-0.00006956,0.00024064,0
 .00000268,0.00024299,-0.00013615,0.00012206,-0.00361664,0.00046760,-0.
 00108062,0.00007752,-0.00595103,-0.00308097,-0.00107620,-0.00024301,-0
 .00069387,0.00037595,-0.00055776,0.00023911,0.00046860,-0.00010392,0.0
 0027985,0.00026128,-0.00077526,0.00007256,-0.00026094,0.00068123,0.000
 53886,0.00020894,-0.00031575,0.00089096,-0.00009422,0.00014861,0.00000
 028,-0.00011221,0.00008529,-0.00004795,0.00004383,0.00009244,-0.000129
 98,-0.00018053,0.00056810,-0.00030295,0.00059311,0.00039060,0.00004322
 ,0.00264220,-0.00024454,0.00358831,0.00091121,0.00045218,0.00086274,-0
 .00004087,-0.00000382,-0.00006880,-0.00021516,-0.00008899,-0.00013703,
 0.00011273,-0.00157839,-0.00128980,-0.00010083,0.00016489,-0.00021568,
 -0.00003863,-0.00018415,0.00006496,-0.00035755,-0.00006331,0.00016175,
 0.00133403,0.00329885,-0.00238359,-0.00015264,-0.00056213,0.00079459,-
 0.00027373,-0.00025101,0.00048739,-0.00024571,0.00034525,0.00025523,0.
 00000226,-0.00024466,-0.00003538,-0.00011171,0.00001425,-0.00010366,0.
 00083571,-0.00000741,-0.00102612,-0.00014797,0.00093648,0.00076448,-0.
 00021155,-0.00024677,0.00015766,0.00088548,0.00051100,-0.00087309,-0.0
 0022869,-0.00009536,0.00002566,-0.00031221,0.00048854,0.00016954,-0.00
 566766,-0.00506012,0.00497781,0.00074238,0.00032358,-0.00056955,0.0015
 7682,0.00032263,0.00018131,-0.40297697,-0.01808048,0.03394548,-0.01045
 572,0.00161487,0.00195093,-0.01029179,0.00045977,0.00081093,0.42538732
 ,-0.00030555,-0.00014175,-0.00014691,0.00008429,0.00005079,0.00008227,
 -0.00000089,0.00001797,0.00004842,0.00002448,0.00004102,0.00003540,-0.
 00008276,0.00004161,0.00001602,0.00025013,0.00019765,0.00004874,-0.000
 03072,-0.00003699,0.00002681,0.00000758,0.00000913,0.00000414,0.000000
 92,-0.00000720,0.00000230,-0.00000033,-0.00001798,-0.00002351,-0.00003
 941,-0.00001785,0.00000333,0.00002522,-0.00013736,0.00000427,-0.000027
 47,-0.00004922,-0.00004812,-0.00003679,-0.00003000,-0.00006037,-0.0000
 8349,-0.00006026,-0.00012530,-0.00004292,0.00015216,-0.00009197,-0.000
 06845,0.00003866,0.00002165,0.00001414,-0.00002860,0.00004615,0.000167
 42,-0.00033894,-0.00019127,-0.00006396,0.00018134,-0.00010692,0.000004
 58,0.00003846,-0.00000216,0.00001077,0.00000792,0.00001982,0.00001429,
 0.00000132,0.00004293,-0.00033018,0.00002972,0.00000207,0.00056762,-0.
 00020489,0.00011893,-0.00009160,-0.00015562,-0.00000914,0.00011492,0.0
 0006188,0.00009145,0.00001382,0.00006466,-0.00002646,0.00014619,-0.000
 06230,0.00008840,-0.00005369,0.00003640,-0.00001083,0.00005117,0.00002
 660,0.00006873,-0.00002880,0.00000202,-0.00001334,-0.00001435,-0.00001
 371,-0.00000377,-0.00000925,0.00000590,-0.00001549,-0.00010298,-0.0001
 2658,-0.00002964,-0.00004950,0.00010184,-0.00008656,-0.00023700,0.0007
 1487,0.00001959,0.00006225,-0.00000260,-0.00001485,0.00000005,0.000003
 35,0.00000370,-0.00000132,-0.00000406,-0.00000375,-0.00009354,0.000014
 97,-0.00000406,0.00001558,0.00000284,-0.00000140,0.00010791,0.00007597
 ,0.00001070,0.00006031,-0.00011005,0.00008414,0.00087561,-0.00016970,0
 .00158207,-0.00386745,0.00282926,-0.00098035,-0.00127342,-0.00055142,-
 0.00138038,-0.00010185,-0.00031235,0.00039125,-0.00039832,-0.00058392,
 -0.00053694,0.00065826,-0.00137528,-0.00051354,0.00035796,-0.00043885,
 -0.00004958,0.00012736,0.00015589,0.00100211,0.00004903,0.00013147,0.0
 0000415,-0.00004862,0.00033689,0.00017602,0.00030159,-0.00023854,0.000
 30960,0.00013050,0.00022329,-0.00017482,0.00117177,-0.00006033,0.00026
 209,-0.00129540,-0.00349056,-0.00053379,0.00071333,-0.00026344,0.00007
 711,-0.00002689,-0.00000107,-0.00000235,-0.00016491,-0.00004504,-0.000
 11303,-0.00106301,-0.00140999,-0.00107973,0.00010551,-0.00006746,0.000
 03128,-0.00007830,-0.00005630,0.00004307,-0.00007073,0.00026286,-0.000
 06594,0.00083366,0.00053386,0.00064184,-0.00014523,-0.00017989,-0.0000
 0728,0.00006792,0.00011893,0.00013588,0.00064403,-0.00000209,0.0002313
 0,-0.00019424,-0.00000106,-0.00027688,-0.00009060,-0.00000487,-0.00006
 243,-0.00018544,-0.00077152,0.00180459,0.00180892,-0.00079396,-0.00180
 032,-0.00001706,0.00080398,-0.00070895,-0.00163161,-0.00017054,-0.0004
 1113,0.00002342,-0.00010447,-0.00000663,0.00031046,0.00050072,-0.00009
 521,-0.03050840,-0.00212709,0.00412169,0.00027473,0.00102761,-0.000495
 60,-0.00034249,-0.00398020,0.00373838,-0.01777983,-0.05476527,0.002034
 00,0.03264455,0.00630652,-0.00102117,-0.00492518,-0.00214226,0.0012086
 5,0.02316163,0.06050318,0.00023753,-0.00025986,0.00006914,-0.00004440,
 0.00039618,-0.00004078,-0.00002970,0.00006536,-0.00002583,-0.00001057,
 -0.00000982,-0.00003074,-0.00003122,0.00008210,0.00003013,-0.00019033,
 -0.00009872,-0.00001585,0.00002739,0.00006357,0.00001618,0.00000932,-0
 .00000359,-0.00003875,0.00001255,-0.00000798,0.00000746,0.00001867,-0.
 00000733,0.00000932,0.00005269,0.00001251,0.00000978,0.00012583,-0.000
 04144,-0.00005030,0.00002139,-0.00001520,0.00002634,-0.00000065,-0.000
 08545,0.00002933,0.00008487,-0.00025496,-0.00015430,0.00018943,-0.0000
 0878,0.00014057,0.00011641,-0.00006715,0.00005040,0.00004691,-0.000034
 42,0.00001032,0.00050892,-0.00035894,-0.00235857,-0.00074195,0.0000370
 0,-0.00029597,-0.00001809,0.00002104,-0.00002956,-0.00000748,0.0000105
 2,-0.00001448,0.00000029,0.00001879,0.00001143,-0.00015444,0.00004263,
 -0.00010016,0.00030156,-0.00010699,0.00020979,-0.00007116,0.00007018,-
 0.00003429,0.00004242,0.00007066,0.00016554,-0.00000694,0.00003206,-0.
 00001864,0.00010828,-0.00001311,0.00007196,-0.00003643,0.00001905,-0.0
 0003273,0.00000733,0.00002323,0.00005478,-0.00000079,-0.00001178,-0.00
 001153,-0.00000907,-0.00000326,-0.00000195,-0.00001042,0.00000828,-0.0
 0001128,-0.00000123,-0.00006884,-0.00014619,-0.00003600,-0.00004256,-0
 .00009727,-0.00019892,0.00042079,-0.00035836,0.00002356,-0.00001454,0.
 00000641,0.00000639,0.00001006,0.00000594,0.00000541,-0.00000958,-0.00
 001102,-0.00004726,0.00000737,-0.00002228,0.00000681,0.00000408,0.0000
 0238,-0.00009060,0.00009878,0.00014707,0.00005260,-0.00000456,0.000084
 35,-0.00027399,0.00184013,0.00024215,-0.00379448,-0.00228406,-0.000790
 43,0.00068899,0.00007329,0.00138646,-0.00022048,-0.00015429,-0.0000625
 1,0.00000931,-0.00015666,0.00046013,0.00113769,-0.00192007,-0.00002019
 ,0.00032528,0.00023180,0.00008278,-0.00007262,0.00003235,-0.00038894,-
 0.00001107,-0.00011600,-0.00002583,-0.00006426,0.00052369,0.00009421,-
 0.00003163,-0.00002389,0.00007498,0.00004803,0.00016591,-0.00034237,-0
 .00013232,0.00019169,-0.00066667,0.00338898,-0.00032394,0.00061267,0.0
 0057516,0.00001281,0.00017538,0.00004217,-0.00000147,-0.00006789,-0.00
 017270,-0.00003576,-0.00006167,-0.00055360,-0.00082773,-0.00089579,0.0
 0002219,-0.00013719,0.00015808,0.00000546,0.00002144,0.00004533,-0.000
 01925,-0.00007204,0.00031998,-0.00078850,0.00191697,-0.00164615,0.0001
 3811,-0.00022053,0.00013635,-0.00006639,-0.00004603,-0.00021430,0.0000
 6880,0.00052963,-0.00006052,-0.00010721,-0.00012559,-0.00018256,-0.000
 00696,-0.00009151,-0.00006942,-0.00072749,-0.00006970,0.00144793,0.000
 62114,-0.00008796,-0.00017033,-0.00010116,0.00009677,-0.00028680,-0.00
 051717,-0.00081612,0.00062173,-0.00012187,-0.00015041,-0.00005491,0.00
 012245,-0.00019517,-0.00018176,0.02585721,0.00205656,-0.00295619,0.000
 60614,-0.00046648,-0.00025822,0.00029392,0.00373415,-0.00312178,0.0310
 8032,0.00134379,-0.06175734,0.01477716,0.00326667,-0.00099335,-0.03209
 424,-0.00034731,0.01111138,-0.04020001,-0.00735314,0.06104860\\0.00002
 470,0.00000310,-0.00000711,0.00002626,-0.00002393,-0.00001195,-0.00001
 319,-0.00000369,0.00000739,0.00001653,-0.00000167,0.00001231,-0.000007
 25,0.00001923,0.00000548,-0.00002130,-0.00001542,-0.00000606,-0.000006
 70,0.00000257,0.00000099,-0.00000061,0.00000419,-0.00000367,0.00000248
 ,-0.00000313,-0.00000341,0.00000956,-0.00000039,-0.00000692,0.00000719
 ,-0.00000291,-0.00000148,0.00001519,-0.00000312,-0.00000702,0.00000306
 ,0.00000347,-0.00000686,0.00001269,0.00000761,0.00000175,-0.00001147,0
 .00002405,0.00000964,-0.00000493,0.00001579,-0.00000361,0.00000247,0.0
 0000009,-0.00000576,0.00000562,-0.00000211,-0.00000091,0.00001209,-0.0
 0001249,0.00000655,0.00000547,0.00000355,-0.00000721,0.00000099,-0.000
 00237,0.00000237,0.00000461,-0.00000142,0.00000192,-0.00000176,-0.0000
 0302,-0.00000307,-0.00000450,-0.00000197,0.00000855,-0.00000549,0.0000
 0359,-0.00001441,-0.00000380,-0.00000253,0.00001123,-0.00000331,-0.000
 01263,-0.00000823,0.00001353,0.00002785,0.00000774,-0.00001407,-0.0000
 0188,-0.00002021,-0.00000510,-0.00000497,0.00000175,0.00000065,0.00000
 305,-0.00000227,-0.00000294,0.00000008,0.00000405,0.00000016,-0.000002
 55,-0.00000054,-0.00000313,-0.00000294,0.00000174,-0.00000696,-0.00001
 942,-0.00000312,0.00000721,-0.00001184,-0.00000500,0.00000967,-0.00000
 048,-0.00000003,0.00000062,-0.00000232,-0.00000262,-0.00000454,0.00000
 072,-0.00000279,-0.00000365,-0.00000308,-0.00000369,-0.00000657,-0.000
 00176,0.00000031,-0.00000032,-0.00000442,-0.00000574,-0.00000514,0.000
 00514,0.00002428,-0.00001575,0.00001979,-0.00000396,0.00000055,0.00000
 153,0.00000193,0.00000951,0.00001968,0.00000929,-0.00001347,0.00000198
 ,-0.00000134,-0.00000045,-0.00000371,0.00000086,-0.00001034,-0.0000023
 5,0.00000936,-0.00001129,0.00000298,-0.00000804,-0.00000632,-0.0000015
 2,-0.00000148,0.00000827,0.00000173,0.00000693,0.00000201,-0.00000707,
 0.00000048,-0.00000808,-0.00000125,0.00000214,0.00000255,0.00000324,0.
 00000377,0.00000899,-0.00000640,0.00002054,0.00000636,-0.00000297,0.00
 000543,-0.00002333,-0.00000691,0.00000463,0.00000821,-0.00000060,0.000
 01104,-0.00000350,-0.00000084,-0.00000120,-0.00000253,-0.00000475,-0.0
 0000210,0.00000154,-0.00000464,-0.00001332,-0.00000569,-0.00000387,-0.
 00000828,-0.00000616,0.00000811,0.00000373,-0.00000163,0.00000626,0.00
 000350,0.00000715,0.00000173,0.00000744,-0.00000203,0.00000077,-0.0000
 0120,-0.00000077,0.00000044,-0.00000080,-0.00000068,0.00000125,-0.0000
 0215,0.00000015,0.00000064,-0.00000041,-0.00000098,0.00000161,0.000002
 89,0.00000215,-0.00000025,0.00000257,0.00000092,-0.00000088,0.00000227
 ,0.00000229,0.00000159,0.00000115,0.00000195,0.00000490,-0.00000241,0.
 00000324,-0.00000009,0.00000031,0.00000118,0.00000008,-0.00000215,0.00
 000041,-0.00000649,0.00000115,0.00000019,0.00000009,-0.00000359,0.0000
 0231,-0.00000057,-0.00000399,0.00001024,0.00000109,0.00002125,-0.00000
 250,-0.00000039,0.00000535,-0.00000562,0.00000255,-0.00000479,-0.00000
 303,-0.00000208,-0.00003112\\\@


 "TIGER, TIGER BURNING BRIGHT
 IN THE FOREST OF THE NIGHT.
 WHAT IMMORTAL HAND OR EYE
 CAN FRAME THY FEARFUL SYMMETRYE?"
                     - WILLIAM BLAKE
 Job cpu time:      21 days 22 hours  3 minutes 27.1 seconds.
 File lengths (MBytes):  RWF=  24106 Int=      0 D2E=      0 Chk=     98 Scr=      1
 Normal termination of Gaussian 09 at Fri Apr  8 17:01:06 2016.
