 Entering Gaussian System, Link 0=g09
 Initial command:
 /share/apps//g09/l1.exe "/scratch/Gau-10973.inp" -scrdir="/scratch/"
 Entering Link 1 = /share/apps//g09/l1.exe PID=     10974.
  
 Copyright (c) 1988,1990,1992,1993,1995,1998,2003,2009,2013,
            Gaussian, Inc.  All Rights Reserved.
  
 This is part of the Gaussian(R) 09 program.  It is based on
 the Gaussian(R) 03 system (copyright 2003, Gaussian, Inc.),
 the Gaussian(R) 98 system (copyright 1998, Gaussian, Inc.),
 the Gaussian(R) 94 system (copyright 1995, Gaussian, Inc.),
 the Gaussian 92(TM) system (copyright 1992, Gaussian, Inc.),
 the Gaussian 90(TM) system (copyright 1990, Gaussian, Inc.),
 the Gaussian 88(TM) system (copyright 1988, Gaussian, Inc.),
 the Gaussian 86(TM) system (copyright 1986, Carnegie Mellon
 University), and the Gaussian 82(TM) system (copyright 1983,
 Carnegie Mellon University). Gaussian is a federally registered
 trademark of Gaussian, Inc.
  
 This software contains proprietary and confidential information,
 including trade secrets, belonging to Gaussian, Inc.
  
 This software is provided under written license and may be
 used, copied, transmitted, or stored only in accord with that
 written license.
  
 The following legend is applicable only to US Government
 contracts under FAR:
  
                    RESTRICTED RIGHTS LEGEND
  
 Use, reproduction and disclosure by the US Government is
 subject to restrictions as set forth in subparagraphs (a)
 and (c) of the Commercial Computer Software - Restricted
 Rights clause in FAR 52.227-19.
  
 Gaussian, Inc.
 340 Quinnipiac St., Bldg. 40, Wallingford CT 06492
  
  
 ---------------------------------------------------------------
 Warning -- This program may not be used in any manner that
 competes with the business of Gaussian, Inc. or will provide
 assistance to any competitor of Gaussian, Inc.  The licensee
 of this program is prohibited from giving any competitor of
 Gaussian, Inc. access to this program.  By using this program,
 the user acknowledges that Gaussian, Inc. is engaged in the
 business of creating and licensing software in the field of
 computational chemistry and represents and warrants to the
 licensee that it is not a competitor of Gaussian, Inc. and that
 it will not use this program in any manner prohibited above.
 ---------------------------------------------------------------
  

 Cite this work as:
 Gaussian 09, Revision D.01,
 M. J. Frisch, G. W. Trucks, H. B. Schlegel, G. E. Scuseria, 
 M. A. Robb, J. R. Cheeseman, G. Scalmani, V. Barone, B. Mennucci, 
 G. A. Petersson, H. Nakatsuji, M. Caricato, X. Li, H. P. Hratchian, 
 A. F. Izmaylov, J. Bloino, G. Zheng, J. L. Sonnenberg, M. Hada, 
 M. Ehara, K. Toyota, R. Fukuda, J. Hasegawa, M. Ishida, T. Nakajima, 
 Y. Honda, O. Kitao, H. Nakai, T. Vreven, J. A. Montgomery, Jr., 
 J. E. Peralta, F. Ogliaro, M. Bearpark, J. J. Heyd, E. Brothers, 
 K. N. Kudin, V. N. Staroverov, T. Keith, R. Kobayashi, J. Normand, 
 K. Raghavachari, A. Rendell, J. C. Burant, S. S. Iyengar, J. Tomasi, 
 M. Cossi, N. Rega, J. M. Millam, M. Klene, J. E. Knox, J. B. Cross, 
 V. Bakken, C. Adamo, J. Jaramillo, R. Gomperts, R. E. Stratmann, 
 O. Yazyev, A. J. Austin, R. Cammi, C. Pomelli, J. W. Ochterski, 
 R. L. Martin, K. Morokuma, V. G. Zakrzewski, G. A. Voth, 
 P. Salvador, J. J. Dannenberg, S. Dapprich, A. D. Daniels, 
 O. Farkas, J. B. Foresman, J. V. Ortiz, J. Cioslowski, 
 and D. J. Fox, Gaussian, Inc., Wallingford CT, 2013.
 
 ******************************************
 Gaussian 09:  EM64L-G09RevD.01 24-Apr-2013
                27-Apr-2016 
 ******************************************
 %nproc=20
 Will use up to   20 processors via shared memory.
 %mem=80GB
 %chk=Tri_A131_of.chk
 ----------------------------------------------------------------------
 #P PBE1PBE/6-311+G(d,p) opt=ModRedundant freq optcyc=999 EmpiricalDisp
 ersion=GD3
 ----------------------------------------------------------------------
 1/6=999,14=-1,18=120,19=15,26=3,38=1/1,3;
 2/9=110,12=2,17=6,18=5,40=1/2;
 3/5=4,6=6,7=111,11=2,16=1,25=1,30=1,71=1,74=-13,124=31/1,2,3;
 4//1;
 5/5=2,38=5/2;
 6/7=2,8=2,9=2,10=2,28=1/1;
 7//1,2,3,16;
 1/6=999,14=-1,18=20,19=15,26=3/3(2);
 2/9=110/2;
 99//99;
 2/9=110/2;
 3/5=4,6=6,7=111,11=2,16=1,25=1,30=1,71=1,74=-13,124=31/1,2,3;
 4/5=5,16=3,69=1/1;
 5/5=2,38=5/2;
 7//1,2,3,16;
 1/6=999,14=-1,18=20,19=15,26=3/3(-5);
 2/9=110/2;
 6/7=2,8=2,9=2,10=2,19=2,28=1/1;
 99/9=1/99;
 Leave Link    1 at Wed Apr 27 09:27:03 2016, MaxMem= 10737418240 cpu:         1.8
 (Enter /share/apps//g09/l101.exe)
 -----
 trich
 -----
 Symbolic Z-matrix:
 Charge =  1 Multiplicity = 1
 O                    -0.59667  -0.3795    7.42668 
 C                    -1.29664  -0.77774   6.26301 
 C                    -0.3491   -0.8347    5.04928 
 C                     0.79434  -1.81546   5.32502 
 C                     1.50308  -1.41667   6.62734 
 C                     0.48955  -1.2624    7.77299 
 H                    -2.07055  -0.00869   6.11932 
 H                     0.08305   0.17163   4.93451 
 H                     0.39951  -2.84008   5.39243 
 H                     2.20458  -2.22922   6.90524 
 H                     0.0922   -2.2693    7.99495 
 O                     2.23674  -0.23441   6.29988 
 O                     1.75722  -1.8231    4.25595 
 O                    -1.0419   -1.22132   3.84566 
 O                    -1.89916  -2.06281   6.38709 
 C                     1.09311  -0.76562   9.07697 
 H                     0.27709  -0.617     9.80284 
 H                     1.77338  -1.54581   9.4614 
 O                     1.80001   0.46689   8.8483 
 H                     2.1825    0.77751   9.68512 
 H                     2.35693   0.27637   7.13194 
 H                     2.35212  -1.06163   4.42064 
 H                    -1.32826  -0.40608   3.401 
 O                    -3.47528  -4.42895   5.99112 
 C                    -3.23575  -4.65342   7.37962 
 C                    -2.99745  -3.31714   8.15424 
 C                    -3.06416  -2.09015   7.23506 
 C                    -4.3415   -2.11966   6.39053 
 C                    -4.52588  -3.50446   5.68303 
 H                    -4.11165  -5.15467   7.83395 
 H                    -2.00555  -3.35276   8.62535 
 H                    -3.07306  -1.19686   7.87748 
 H                    -5.1818   -1.9686    7.08542 
 H                    -5.49385  -3.93526   6.01034 
 O                    -4.27341  -1.01809   5.46127 
 O                    -4.02015  -3.11995   9.13999 
 O                    -2.20104  -5.60024   7.48084 
 C                    -4.54744  -3.4291    4.15748 
 H                    -4.80368  -4.42056   3.75983 
 H                    -5.31833  -2.71838   3.82145 
 O                    -3.27222  -3.09993   3.59313 
 H                    -2.9548   -2.25745   3.98529 
 H                    -5.16064  -0.63554   5.37195 
 H                    -3.81592  -3.68224   9.90649 
 O                     0.87067  -5.84022   5.44343 
 C                     1.81161  -6.18552   6.47018 
 C                     1.55261  -5.30621   7.69038 
 C                     0.10104  -5.40879   8.15628 
 C                    -0.89414  -5.21114   7.0076 
 C                    -0.48716  -6.12009   5.82289 
 H                     1.7025   -7.26413   6.71957 
 H                     1.75682  -4.26691   7.37169 
 H                    -0.06353  -6.42267   8.56987 
 H                    -0.58335  -7.17605   6.15066 
 H                    -0.90297  -4.16396   6.66814 
 O                    -0.14828  -4.43245   9.17692 
 O                     2.362    -5.65989   8.81083 
 O                     3.09294  -5.88921   6.01608 
 C                    -1.32087  -5.9646    4.558 
 H                    -0.98074  -6.7244    3.83526 
 H                    -2.37673  -6.14805   4.79121 
 O                    -1.15917  -4.66906   3.97372 
 H                    -2.02088  -4.15596   3.96202 
 H                     0.49298  -4.6163    9.88749 
 H                     3.2931   -5.58629   8.53367 
 C                     3.59069  -6.7615    4.96898 
 H                     4.29992  -7.47447   5.42022 
 H                     2.75276  -7.33266   4.54112 
 C                     4.28726  -5.91695   3.9084 
 H                     4.72666  -6.60498   3.16634 
 H                     5.13305  -5.39447   4.38187 
 C                     3.39185  -4.87953   3.21273 
 H                     2.97086  -4.21484   3.98291 
 H                     4.0308   -4.25046   2.57032 
 C                     2.27004  -5.49073   2.36166 
 H                     2.6984   -6.21026   1.64435 
 H                     1.57436  -6.05852   2.99907 
 C                     1.47409  -4.48219   1.53754 
 H                     0.76424  -4.99781   0.87672 
 H                     2.13578  -3.86658   0.91076 
 N                     0.66799  -3.552     2.39741 
 H                     0.08991  -2.92045   1.83143 
 H                     1.25523  -2.9307    3.00392 
 H                    -0.01507  -4.08303   3.03799 
 
 The following ModRedundant input section has been read:
 B      45      84 B                                                           
 B      58      84 B                                                           
 B      56      84 B                                                           
 B      41      82 B                                                           
 B      62      82 B                                                           
 B      35      82 B                                                           
 B      13      83 B                                                           
 B      19      83 B                                                           
 B      14      83 B                                                           
 
 NAtoms=     84 NQM=       84 NQMF=       0 NMMI=      0 NMMIF=      0
                NMic=       0 NMicF=      0.
                    Isotopes and Nuclear Properties:
 (Nuclear quadrupole moments (NQMom) in fm**2, nuclear magnetic moments (NMagM)
  in nuclear magnetons)

  Atom         1           2           3           4           5           6           7           8           9          10
 IAtWgt=          16          12          12          12          12          12           1           1           1           1
 AtmWgt=  15.9949146  12.0000000  12.0000000  12.0000000  12.0000000  12.0000000   1.0078250   1.0078250   1.0078250   1.0078250
 NucSpn=           0           0           0           0           0           0           1           1           1           1
 AtZEff=   0.0000000   0.0000000   0.0000000   0.0000000   0.0000000   0.0000000   0.0000000   0.0000000   0.0000000   0.0000000
 NQMom=    0.0000000   0.0000000   0.0000000   0.0000000   0.0000000   0.0000000   0.0000000   0.0000000   0.0000000   0.0000000
 NMagM=    0.0000000   0.0000000   0.0000000   0.0000000   0.0000000   0.0000000   2.7928460   2.7928460   2.7928460   2.7928460
 AtZNuc=   8.0000000   6.0000000   6.0000000   6.0000000   6.0000000   6.0000000   1.0000000   1.0000000   1.0000000   1.0000000

  Atom        11          12          13          14          15          16          17          18          19          20
 IAtWgt=           1          16          16          16          16          12           1           1          16           1
 AtmWgt=   1.0078250  15.9949146  15.9949146  15.9949146  15.9949146  12.0000000   1.0078250   1.0078250  15.9949146   1.0078250
 NucSpn=           1           0           0           0           0           0           1           1           0           1
 AtZEff=   0.0000000   0.0000000   0.0000000   0.0000000   0.0000000   0.0000000   0.0000000   0.0000000   0.0000000   0.0000000
 NQMom=    0.0000000   0.0000000   0.0000000   0.0000000   0.0000000   0.0000000   0.0000000   0.0000000   0.0000000   0.0000000
 NMagM=    2.7928460   0.0000000   0.0000000   0.0000000   0.0000000   0.0000000   2.7928460   2.7928460   0.0000000   2.7928460
 AtZNuc=   1.0000000   8.0000000   8.0000000   8.0000000   8.0000000   6.0000000   1.0000000   1.0000000   8.0000000   1.0000000

  Atom        21          22          23          24          25          26          27          28          29          30
 IAtWgt=           1           1           1          16          12          12          12          12          12           1
 AtmWgt=   1.0078250   1.0078250   1.0078250  15.9949146  12.0000000  12.0000000  12.0000000  12.0000000  12.0000000   1.0078250
 NucSpn=           1           1           1           0           0           0           0           0           0           1
 AtZEff=   0.0000000   0.0000000   0.0000000   0.0000000   0.0000000   0.0000000   0.0000000   0.0000000   0.0000000   0.0000000
 NQMom=    0.0000000   0.0000000   0.0000000   0.0000000   0.0000000   0.0000000   0.0000000   0.0000000   0.0000000   0.0000000
 NMagM=    2.7928460   2.7928460   2.7928460   0.0000000   0.0000000   0.0000000   0.0000000   0.0000000   0.0000000   2.7928460
 AtZNuc=   1.0000000   1.0000000   1.0000000   8.0000000   6.0000000   6.0000000   6.0000000   6.0000000   6.0000000   1.0000000

  Atom        31          32          33          34          35          36          37          38          39          40
 IAtWgt=           1           1           1           1          16          16          16          12           1           1
 AtmWgt=   1.0078250   1.0078250   1.0078250   1.0078250  15.9949146  15.9949146  15.9949146  12.0000000   1.0078250   1.0078250
 NucSpn=           1           1           1           1           0           0           0           0           1           1
 AtZEff=   0.0000000   0.0000000   0.0000000   0.0000000   0.0000000   0.0000000   0.0000000   0.0000000   0.0000000   0.0000000
 NQMom=    0.0000000   0.0000000   0.0000000   0.0000000   0.0000000   0.0000000   0.0000000   0.0000000   0.0000000   0.0000000
 NMagM=    2.7928460   2.7928460   2.7928460   2.7928460   0.0000000   0.0000000   0.0000000   0.0000000   2.7928460   2.7928460
 AtZNuc=   1.0000000   1.0000000   1.0000000   1.0000000   8.0000000   8.0000000   8.0000000   6.0000000   1.0000000   1.0000000

  Atom        41          42          43          44          45          46          47          48          49          50
 IAtWgt=          16           1           1           1          16          12          12          12          12          12
 AtmWgt=  15.9949146   1.0078250   1.0078250   1.0078250  15.9949146  12.0000000  12.0000000  12.0000000  12.0000000  12.0000000
 NucSpn=           0           1           1           1           0           0           0           0           0           0
 AtZEff=   0.0000000   0.0000000   0.0000000   0.0000000   0.0000000   0.0000000   0.0000000   0.0000000   0.0000000   0.0000000
 NQMom=    0.0000000   0.0000000   0.0000000   0.0000000   0.0000000   0.0000000   0.0000000   0.0000000   0.0000000   0.0000000
 NMagM=    0.0000000   2.7928460   2.7928460   2.7928460   0.0000000   0.0000000   0.0000000   0.0000000   0.0000000   0.0000000
 AtZNuc=   8.0000000   1.0000000   1.0000000   1.0000000   8.0000000   6.0000000   6.0000000   6.0000000   6.0000000   6.0000000

  Atom        51          52          53          54          55          56          57          58          59          60
 IAtWgt=           1           1           1           1           1          16          16          16          12           1
 AtmWgt=   1.0078250   1.0078250   1.0078250   1.0078250   1.0078250  15.9949146  15.9949146  15.9949146  12.0000000   1.0078250
 NucSpn=           1           1           1           1           1           0           0           0           0           1
 AtZEff=   0.0000000   0.0000000   0.0000000   0.0000000   0.0000000   0.0000000   0.0000000   0.0000000   0.0000000   0.0000000
 NQMom=    0.0000000   0.0000000   0.0000000   0.0000000   0.0000000   0.0000000   0.0000000   0.0000000   0.0000000   0.0000000
 NMagM=    2.7928460   2.7928460   2.7928460   2.7928460   2.7928460   0.0000000   0.0000000   0.0000000   0.0000000   2.7928460
 AtZNuc=   1.0000000   1.0000000   1.0000000   1.0000000   1.0000000   8.0000000   8.0000000   8.0000000   6.0000000   1.0000000

  Atom        61          62          63          64          65          66          67          68          69          70
 IAtWgt=           1          16           1           1           1          12           1           1          12           1
 AtmWgt=   1.0078250  15.9949146   1.0078250   1.0078250   1.0078250  12.0000000   1.0078250   1.0078250  12.0000000   1.0078250
 NucSpn=           1           0           1           1           1           0           1           1           0           1
 AtZEff=   0.0000000   0.0000000   0.0000000   0.0000000   0.0000000   0.0000000   0.0000000   0.0000000   0.0000000   0.0000000
 NQMom=    0.0000000   0.0000000   0.0000000   0.0000000   0.0000000   0.0000000   0.0000000   0.0000000   0.0000000   0.0000000
 NMagM=    2.7928460   0.0000000   2.7928460   2.7928460   2.7928460   0.0000000   2.7928460   2.7928460   0.0000000   2.7928460
 AtZNuc=   1.0000000   8.0000000   1.0000000   1.0000000   1.0000000   6.0000000   1.0000000   1.0000000   6.0000000   1.0000000

  Atom        71          72          73          74          75          76          77          78          79          80
 IAtWgt=           1          12           1           1          12           1           1          12           1           1
 AtmWgt=   1.0078250  12.0000000   1.0078250   1.0078250  12.0000000   1.0078250   1.0078250  12.0000000   1.0078250   1.0078250
 NucSpn=           1           0           1           1           0           1           1           0           1           1
 AtZEff=   0.0000000   0.0000000   0.0000000   0.0000000   0.0000000   0.0000000   0.0000000   0.0000000   0.0000000   0.0000000
 NQMom=    0.0000000   0.0000000   0.0000000   0.0000000   0.0000000   0.0000000   0.0000000   0.0000000   0.0000000   0.0000000
 NMagM=    2.7928460   0.0000000   2.7928460   2.7928460   0.0000000   2.7928460   2.7928460   0.0000000   2.7928460   2.7928460
 AtZNuc=   1.0000000   6.0000000   1.0000000   1.0000000   6.0000000   1.0000000   1.0000000   6.0000000   1.0000000   1.0000000

  Atom        81          82          83          84
 IAtWgt=          14           1           1           1
 AtmWgt=  14.0030740   1.0078250   1.0078250   1.0078250
 NucSpn=           2           1           1           1
 AtZEff=   0.0000000   0.0000000   0.0000000   0.0000000
 NQMom=    2.0440000   0.0000000   0.0000000   0.0000000
 NMagM=    0.4037610   2.7928460   2.7928460   2.7928460
 AtZNuc=   7.0000000   1.0000000   1.0000000   1.0000000
 Leave Link  101 at Wed Apr 27 09:27:04 2016, MaxMem= 10737418240 cpu:         4.4
 (Enter /share/apps//g09/l103.exe)

 GradGradGradGradGradGradGradGradGradGradGradGradGradGradGradGradGradGrad
 Berny optimization.
 Initialization pass.
                           ----------------------------
                           !    Initial Parameters    !
                           ! (Angstroms and Degrees)  !
 --------------------------                            --------------------------
 ! Name  Definition              Value          Derivative Info.                !
 --------------------------------------------------------------------------------
 ! R1    R(1,2)                  1.4152         estimate D2E/DX2                !
 ! R2    R(1,6)                  1.442          estimate D2E/DX2                !
 ! R3    R(2,3)                  1.5408         estimate D2E/DX2                !
 ! R4    R(2,7)                  1.1005         estimate D2E/DX2                !
 ! R5    R(2,15)                 1.4247         estimate D2E/DX2                !
 ! R6    R(3,4)                  1.5315         estimate D2E/DX2                !
 ! R7    R(3,8)                  1.1012         estimate D2E/DX2                !
 ! R8    R(3,14)                 1.4416         estimate D2E/DX2                !
 ! R9    R(4,5)                  1.5354         estimate D2E/DX2                !
 ! R10   R(4,9)                  1.1001         estimate D2E/DX2                !
 ! R11   R(4,13)                 1.4388         estimate D2E/DX2                !
 ! R12   R(5,6)                  1.5374         estimate D2E/DX2                !
 ! R13   R(5,10)                 1.1089         estimate D2E/DX2                !
 ! R14   R(5,12)                 1.4294         estimate D2E/DX2                !
 ! R15   R(6,11)                 1.105          estimate D2E/DX2                !
 ! R16   R(6,16)                 1.5203         estimate D2E/DX2                !
 ! R17   R(12,21)                0.9837         estimate D2E/DX2                !
 ! R18   R(13,22)                0.9802         estimate D2E/DX2                !
 ! R19   R(13,83)                1.7454         estimate D2E/DX2                !
 ! R20   R(14,23)                0.9718         estimate D2E/DX2                !
 ! R21   R(14,83)                2.9845         estimate D2E/DX2                !
 ! R22   R(15,27)                1.4412         estimate D2E/DX2                !
 ! R23   R(16,17)                1.1022         estimate D2E/DX2                !
 ! R24   R(16,18)                1.1042         estimate D2E/DX2                !
 ! R25   R(16,19)                1.4391         estimate D2E/DX2                !
 ! R26   R(19,20)                0.9711         estimate D2E/DX2                !
 ! R27   R(19,83)                6.7821         estimate D2E/DX2                !
 ! R28   R(24,25)                1.4268         estimate D2E/DX2                !
 ! R29   R(24,29)                1.433          estimate D2E/DX2                !
 ! R30   R(25,26)                1.5628         estimate D2E/DX2                !
 ! R31   R(25,30)                1.1067         estimate D2E/DX2                !
 ! R32   R(25,37)                1.4062         estimate D2E/DX2                !
 ! R33   R(26,27)                1.5346         estimate D2E/DX2                !
 ! R34   R(26,31)                1.0987         estimate D2E/DX2                !
 ! R35   R(26,36)                1.4341         estimate D2E/DX2                !
 ! R36   R(27,28)                1.5316         estimate D2E/DX2                !
 ! R37   R(27,32)                1.1003         estimate D2E/DX2                !
 ! R38   R(28,29)                1.566          estimate D2E/DX2                !
 ! R39   R(28,33)                1.1008         estimate D2E/DX2                !
 ! R40   R(28,35)                1.4428         estimate D2E/DX2                !
 ! R41   R(29,34)                1.1089         estimate D2E/DX2                !
 ! R42   R(29,38)                1.5276         estimate D2E/DX2                !
 ! R43   R(35,43)                0.9703         estimate D2E/DX2                !
 ! R44   R(35,82)                5.9861         estimate D2E/DX2                !
 ! R45   R(36,44)                0.9723         estimate D2E/DX2                !
 ! R46   R(37,49)                1.4434         estimate D2E/DX2                !
 ! R47   R(38,39)                1.0985         estimate D2E/DX2                !
 ! R48   R(38,40)                1.101          estimate D2E/DX2                !
 ! R49   R(38,41)                1.4328         estimate D2E/DX2                !
 ! R50   R(41,42)                0.982          estimate D2E/DX2                !
 ! R51   R(41,82)                3.8            estimate D2E/DX2                !
 ! R52   R(45,46)                1.4349         estimate D2E/DX2                !
 ! R53   R(45,50)                1.4374         estimate D2E/DX2                !
 ! R54   R(45,84)                3.1078         estimate D2E/DX2                !
 ! R55   R(46,47)                1.5262         estimate D2E/DX2                !
 ! R56   R(46,51)                1.1124         estimate D2E/DX2                !
 ! R57   R(46,58)                1.3913         estimate D2E/DX2                !
 ! R58   R(47,48)                1.528          estimate D2E/DX2                !
 ! R59   R(47,52)                1.1061         estimate D2E/DX2                !
 ! R60   R(47,57)                1.4267         estimate D2E/DX2                !
 ! R61   R(48,49)                1.5326         estimate D2E/DX2                !
 ! R62   R(48,53)                1.1073         estimate D2E/DX2                !
 ! R63   R(48,56)                1.4343         estimate D2E/DX2                !
 ! R64   R(49,50)                1.5477         estimate D2E/DX2                !
 ! R65   R(49,55)                1.1009         estimate D2E/DX2                !
 ! R66   R(50,54)                1.1098         estimate D2E/DX2                !
 ! R67   R(50,59)                1.5229         estimate D2E/DX2                !
 ! R68   R(56,64)                0.9746         estimate D2E/DX2                !
 ! R69   R(56,84)                6.1503         estimate D2E/DX2                !
 ! R70   R(57,65)                0.9743         estimate D2E/DX2                !
 ! R71   R(58,66)                1.4509         estimate D2E/DX2                !
 ! R72   R(58,84)                4.6681         estimate D2E/DX2                !
 ! R73   R(59,60)                1.1024         estimate D2E/DX2                !
 ! R74   R(59,61)                1.0968         estimate D2E/DX2                !
 ! R75   R(59,62)                1.4304         estimate D2E/DX2                !
 ! R76   R(62,63)                1.003          estimate D2E/DX2                !
 ! R77   R(62,82)                3.0343         estimate D2E/DX2                !
 ! R78   R(66,67)                1.1022         estimate D2E/DX2                !
 ! R79   R(66,68)                1.1006         estimate D2E/DX2                !
 ! R80   R(66,69)                1.5242         estimate D2E/DX2                !
 ! R81   R(69,70)                1.1032         estimate D2E/DX2                !
 ! R82   R(69,71)                1.1011         estimate D2E/DX2                !
 ! R83   R(69,72)                1.5369         estimate D2E/DX2                !
 ! R84   R(72,73)                1.101          estimate D2E/DX2                !
 ! R85   R(72,74)                1.103          estimate D2E/DX2                !
 ! R86   R(72,75)                1.535          estimate D2E/DX2                !
 ! R87   R(75,76)                1.1026         estimate D2E/DX2                !
 ! R88   R(75,77)                1.1012         estimate D2E/DX2                !
 ! R89   R(75,78)                1.5264         estimate D2E/DX2                !
 ! R90   R(78,79)                1.0984         estimate D2E/DX2                !
 ! R91   R(78,80)                1.0998         estimate D2E/DX2                !
 ! R92   R(78,81)                1.5015         estimate D2E/DX2                !
 ! R93   R(81,82)                1.0263         estimate D2E/DX2                !
 ! R94   R(81,83)                1.0482         estimate D2E/DX2                !
 ! R95   R(81,84)                1.0765         estimate D2E/DX2                !
 ! A1    A(2,1,6)              113.4389         estimate D2E/DX2                !
 ! A2    A(1,2,3)              110.7294         estimate D2E/DX2                !
 ! A3    A(1,2,7)              104.9843         estimate D2E/DX2                !
 ! A4    A(1,2,15)             113.041          estimate D2E/DX2                !
 ! A5    A(3,2,7)              110.8209         estimate D2E/DX2                !
 ! A6    A(3,2,15)             107.1768         estimate D2E/DX2                !
 ! A7    A(7,2,15)             110.1392         estimate D2E/DX2                !
 ! A8    A(2,3,4)              109.937          estimate D2E/DX2                !
 ! A9    A(2,3,8)              106.8366         estimate D2E/DX2                !
 ! A10   A(2,3,14)             111.8426         estimate D2E/DX2                !
 ! A11   A(4,3,8)              108.1194         estimate D2E/DX2                !
 ! A12   A(4,3,14)             109.7184         estimate D2E/DX2                !
 ! A13   A(8,3,14)             110.2837         estimate D2E/DX2                !
 ! A14   A(3,4,5)              109.3316         estimate D2E/DX2                !
 ! A15   A(3,4,9)              109.8478         estimate D2E/DX2                !
 ! A16   A(3,4,13)             111.6716         estimate D2E/DX2                !
 ! A17   A(5,4,9)              110.8303         estimate D2E/DX2                !
 ! A18   A(5,4,13)             108.8267         estimate D2E/DX2                !
 ! A19   A(9,4,13)             106.306          estimate D2E/DX2                !
 ! A20   A(4,5,6)              110.7215         estimate D2E/DX2                !
 ! A21   A(4,5,10)             108.3171         estimate D2E/DX2                !
 ! A22   A(4,5,12)             104.9179         estimate D2E/DX2                !
 ! A23   A(6,5,10)             107.6883         estimate D2E/DX2                !
 ! A24   A(6,5,12)             115.2195         estimate D2E/DX2                !
 ! A25   A(10,5,12)            109.803          estimate D2E/DX2                !
 ! A26   A(1,6,5)              112.2766         estimate D2E/DX2                !
 ! A27   A(1,6,11)             109.5904         estimate D2E/DX2                !
 ! A28   A(1,6,16)             107.7559         estimate D2E/DX2                !
 ! A29   A(5,6,11)             107.1764         estimate D2E/DX2                !
 ! A30   A(5,6,16)             114.2183         estimate D2E/DX2                !
 ! A31   A(11,6,16)            105.5584         estimate D2E/DX2                !
 ! A32   A(5,12,21)            107.3616         estimate D2E/DX2                !
 ! A33   A(4,13,22)            106.0925         estimate D2E/DX2                !
 ! A34   A(4,13,83)            110.1147         estimate D2E/DX2                !
 ! A35   A(22,13,83)           142.0021         estimate D2E/DX2                !
 ! A36   A(3,14,23)            107.3778         estimate D2E/DX2                !
 ! A37   A(3,14,83)             91.0996         estimate D2E/DX2                !
 ! A38   A(23,14,83)           125.3274         estimate D2E/DX2                !
 ! A39   A(2,15,27)            114.2182         estimate D2E/DX2                !
 ! A40   A(6,16,17)            108.36           estimate D2E/DX2                !
 ! A41   A(6,16,18)            108.1984         estimate D2E/DX2                !
 ! A42   A(6,16,19)            109.7893         estimate D2E/DX2                !
 ! A43   A(17,16,18)           108.7903         estimate D2E/DX2                !
 ! A44   A(17,16,19)           110.6601         estimate D2E/DX2                !
 ! A45   A(18,16,19)           110.9669         estimate D2E/DX2                !
 ! A46   A(16,19,20)           109.2983         estimate D2E/DX2                !
 ! A47   A(16,19,83)            70.6359         estimate D2E/DX2                !
 ! A48   A(20,19,83)           159.1389         estimate D2E/DX2                !
 ! A49   A(25,24,29)           115.7104         estimate D2E/DX2                !
 ! A50   A(24,25,26)           111.9274         estimate D2E/DX2                !
 ! A51   A(24,25,30)           109.7483         estimate D2E/DX2                !
 ! A52   A(24,25,37)           107.4286         estimate D2E/DX2                !
 ! A53   A(26,25,30)           107.7255         estimate D2E/DX2                !
 ! A54   A(26,25,37)           115.3307         estimate D2E/DX2                !
 ! A55   A(30,25,37)           104.3503         estimate D2E/DX2                !
 ! A56   A(25,26,27)           112.3428         estimate D2E/DX2                !
 ! A57   A(25,26,31)           108.8126         estimate D2E/DX2                !
 ! A58   A(25,26,36)           110.4588         estimate D2E/DX2                !
 ! A59   A(27,26,31)           108.7849         estimate D2E/DX2                !
 ! A60   A(27,26,36)           105.7113         estimate D2E/DX2                !
 ! A61   A(31,26,36)           110.7049         estimate D2E/DX2                !
 ! A62   A(15,27,26)           109.4183         estimate D2E/DX2                !
 ! A63   A(15,27,28)           110.4935         estimate D2E/DX2                !
 ! A64   A(15,27,32)           109.5517         estimate D2E/DX2                !
 ! A65   A(26,27,28)           110.5572         estimate D2E/DX2                !
 ! A66   A(26,27,32)           107.4431         estimate D2E/DX2                !
 ! A67   A(28,27,32)           109.3194         estimate D2E/DX2                !
 ! A68   A(27,28,29)           111.3686         estimate D2E/DX2                !
 ! A69   A(27,28,33)           106.6132         estimate D2E/DX2                !
 ! A70   A(27,28,35)           107.5226         estimate D2E/DX2                !
 ! A71   A(29,28,33)           108.4617         estimate D2E/DX2                !
 ! A72   A(29,28,35)           112.9384         estimate D2E/DX2                !
 ! A73   A(33,28,35)           109.7444         estimate D2E/DX2                !
 ! A74   A(24,29,28)           112.7719         estimate D2E/DX2                !
 ! A75   A(24,29,34)           109.0192         estimate D2E/DX2                !
 ! A76   A(24,29,38)           104.886          estimate D2E/DX2                !
 ! A77   A(28,29,34)           108.2383         estimate D2E/DX2                !
 ! A78   A(28,29,38)           114.1571         estimate D2E/DX2                !
 ! A79   A(34,29,38)           107.5549         estimate D2E/DX2                !
 ! A80   A(28,35,43)           108.4908         estimate D2E/DX2                !
 ! A81   A(28,35,82)           100.5046         estimate D2E/DX2                !
 ! A82   A(43,35,82)           137.3896         estimate D2E/DX2                !
 ! A83   A(26,36,44)           108.2142         estimate D2E/DX2                !
 ! A84   A(25,37,49)           117.4607         estimate D2E/DX2                !
 ! A85   A(29,38,39)           108.6794         estimate D2E/DX2                !
 ! A86   A(29,38,40)           110.2743         estimate D2E/DX2                !
 ! A87   A(29,38,41)           113.0866         estimate D2E/DX2                !
 ! A88   A(39,38,40)           107.9864         estimate D2E/DX2                !
 ! A89   A(39,38,41)           105.805          estimate D2E/DX2                !
 ! A90   A(40,38,41)           110.7705         estimate D2E/DX2                !
 ! A91   A(38,41,42)           109.1161         estimate D2E/DX2                !
 ! A92   A(42,41,82)            81.8726         estimate D2E/DX2                !
 ! A93   A(46,45,50)           112.5642         estimate D2E/DX2                !
 ! A94   A(46,45,84)           151.2616         estimate D2E/DX2                !
 ! A95   A(50,45,84)            92.5901         estimate D2E/DX2                !
 ! A96   A(45,46,47)           108.7947         estimate D2E/DX2                !
 ! A97   A(45,46,51)           109.2346         estimate D2E/DX2                !
 ! A98   A(45,46,58)           108.61           estimate D2E/DX2                !
 ! A99   A(47,46,51)           111.2696         estimate D2E/DX2                !
 ! A100  A(47,46,58)           107.1295         estimate D2E/DX2                !
 ! A101  A(51,46,58)           111.715          estimate D2E/DX2                !
 ! A102  A(46,47,48)           111.4896         estimate D2E/DX2                !
 ! A103  A(46,47,52)           106.241          estimate D2E/DX2                !
 ! A104  A(46,47,57)           112.8786         estimate D2E/DX2                !
 ! A105  A(48,47,52)           109.0463         estimate D2E/DX2                !
 ! A106  A(48,47,57)           106.4297         estimate D2E/DX2                !
 ! A107  A(52,47,57)           110.7603         estimate D2E/DX2                !
 ! A108  A(47,48,49)           112.314          estimate D2E/DX2                !
 ! A109  A(47,48,53)           108.4549         estimate D2E/DX2                !
 ! A110  A(47,48,56)           109.6592         estimate D2E/DX2                !
 ! A111  A(49,48,53)           107.5491         estimate D2E/DX2                !
 ! A112  A(49,48,56)           109.4318         estimate D2E/DX2                !
 ! A113  A(53,48,56)           109.37           estimate D2E/DX2                !
 ! A114  A(37,49,48)           107.9048         estimate D2E/DX2                !
 ! A115  A(37,49,50)           109.3142         estimate D2E/DX2                !
 ! A116  A(37,49,55)           110.5038         estimate D2E/DX2                !
 ! A117  A(48,49,50)           109.1003         estimate D2E/DX2                !
 ! A118  A(48,49,55)           111.0384         estimate D2E/DX2                !
 ! A119  A(50,49,55)           108.9489         estimate D2E/DX2                !
 ! A120  A(45,50,49)           109.6417         estimate D2E/DX2                !
 ! A121  A(45,50,54)           110.1879         estimate D2E/DX2                !
 ! A122  A(45,50,59)           106.1413         estimate D2E/DX2                !
 ! A123  A(49,50,54)           108.0547         estimate D2E/DX2                !
 ! A124  A(49,50,59)           115.5859         estimate D2E/DX2                !
 ! A125  A(54,50,59)           107.1573         estimate D2E/DX2                !
 ! A126  A(48,56,64)           106.0233         estimate D2E/DX2                !
 ! A127  A(48,56,84)            47.5157         estimate D2E/DX2                !
 ! A128  A(64,56,84)           136.4003         estimate D2E/DX2                !
 ! A129  A(47,57,65)           107.4594         estimate D2E/DX2                !
 ! A130  A(46,58,66)           115.0525         estimate D2E/DX2                !
 ! A131  A(46,58,84)            71.1835         estimate D2E/DX2                !
 ! A132  A(66,58,84)            90.0352         estimate D2E/DX2                !
 ! A133  A(50,59,60)           107.7732         estimate D2E/DX2                !
 ! A134  A(50,59,61)           109.4721         estimate D2E/DX2                !
 ! A135  A(50,59,62)           111.7075         estimate D2E/DX2                !
 ! A136  A(60,59,61)           108.7322         estimate D2E/DX2                !
 ! A137  A(60,59,62)           108.7577         estimate D2E/DX2                !
 ! A138  A(61,59,62)           110.3155         estimate D2E/DX2                !
 ! A139  A(59,62,63)           111.7771         estimate D2E/DX2                !
 ! A140  A(59,62,82)           148.9683         estimate D2E/DX2                !
 ! A141  A(63,62,82)            92.9018         estimate D2E/DX2                !
 ! A142  A(58,66,67)           108.3111         estimate D2E/DX2                !
 ! A143  A(58,66,68)           109.3513         estimate D2E/DX2                !
 ! A144  A(58,66,69)           109.0155         estimate D2E/DX2                !
 ! A145  A(67,66,68)           108.2604         estimate D2E/DX2                !
 ! A146  A(67,66,69)           110.4384         estimate D2E/DX2                !
 ! A147  A(68,66,69)           111.405          estimate D2E/DX2                !
 ! A148  A(66,69,70)           107.727          estimate D2E/DX2                !
 ! A149  A(66,69,71)           108.345          estimate D2E/DX2                !
 ! A150  A(66,69,72)           115.0066         estimate D2E/DX2                !
 ! A151  A(70,69,71)           106.2129         estimate D2E/DX2                !
 ! A152  A(70,69,72)           110.3994         estimate D2E/DX2                !
 ! A153  A(71,69,72)           108.7751         estimate D2E/DX2                !
 ! A154  A(69,72,73)           108.2794         estimate D2E/DX2                !
 ! A155  A(69,72,74)           108.126          estimate D2E/DX2                !
 ! A156  A(69,72,75)           114.0777         estimate D2E/DX2                !
 ! A157  A(73,72,74)           106.5347         estimate D2E/DX2                !
 ! A158  A(73,72,75)           110.4125         estimate D2E/DX2                !
 ! A159  A(74,72,75)           109.1175         estimate D2E/DX2                !
 ! A160  A(72,75,76)           109.6701         estimate D2E/DX2                !
 ! A161  A(72,75,77)           110.2464         estimate D2E/DX2                !
 ! A162  A(72,75,78)           114.6671         estimate D2E/DX2                !
 ! A163  A(76,75,77)           106.5901         estimate D2E/DX2                !
 ! A164  A(76,75,78)           106.4104         estimate D2E/DX2                !
 ! A165  A(77,75,78)           108.8911         estimate D2E/DX2                !
 ! A166  A(75,78,79)           110.5889         estimate D2E/DX2                !
 ! A167  A(75,78,80)           111.3335         estimate D2E/DX2                !
 ! A168  A(75,78,81)           112.3395         estimate D2E/DX2                !
 ! A169  A(79,78,80)           107.9813         estimate D2E/DX2                !
 ! A170  A(79,78,81)           106.7625         estimate D2E/DX2                !
 ! A171  A(80,78,81)           107.6135         estimate D2E/DX2                !
 ! A172  A(78,81,82)           111.5799         estimate D2E/DX2                !
 ! A173  A(78,81,83)           113.4406         estimate D2E/DX2                !
 ! A174  A(78,81,84)           112.0752         estimate D2E/DX2                !
 ! A175  A(82,81,83)           105.6585         estimate D2E/DX2                !
 ! A176  A(82,81,84)           105.9201         estimate D2E/DX2                !
 ! A177  A(83,81,84)           107.671          estimate D2E/DX2                !
 ! A178  A(35,82,41)            24.3508         estimate D2E/DX2                !
 ! A179  A(35,82,62)            56.9734         estimate D2E/DX2                !
 ! A180  A(35,82,81)           105.7665         estimate D2E/DX2                !
 ! A181  A(41,82,62)            44.0485         estimate D2E/DX2                !
 ! A182  A(41,82,81)           102.3348         estimate D2E/DX2                !
 ! A183  A(62,82,81)            59.1973         estimate D2E/DX2                !
 ! A184  A(13,83,14)            69.8544         estimate D2E/DX2                !
 ! A185  A(13,83,19)            16.4305         estimate D2E/DX2                !
 ! A186  A(13,83,81)           162.2395         estimate D2E/DX2                !
 ! A187  A(14,83,19)            62.0863         estimate D2E/DX2                !
 ! A188  A(14,83,81)            94.0986         estimate D2E/DX2                !
 ! A189  A(19,83,81)           147.1988         estimate D2E/DX2                !
 ! A190  A(45,84,56)            37.011          estimate D2E/DX2                !
 ! A191  A(45,84,58)            25.5359         estimate D2E/DX2                !
 ! A192  A(45,84,81)           123.9615         estimate D2E/DX2                !
 ! A193  A(56,84,58)            49.8831         estimate D2E/DX2                !
 ! A194  A(56,84,81)           129.4727         estimate D2E/DX2                !
 ! A195  A(58,84,81)            98.5126         estimate D2E/DX2                !
 ! A196  L(38,41,82,42,-1)     190.9887         estimate D2E/DX2                !
 ! A197  L(38,41,82,42,-2)     177.6848         estimate D2E/DX2                !
 ! D1    D(6,1,2,3)            -59.3476         estimate D2E/DX2                !
 ! D2    D(6,1,2,7)           -178.9992         estimate D2E/DX2                !
 ! D3    D(6,1,2,15)            60.9241         estimate D2E/DX2                !
 ! D4    D(2,1,6,5)             56.7339         estimate D2E/DX2                !
 ! D5    D(2,1,6,11)           -62.2482         estimate D2E/DX2                !
 ! D6    D(2,1,6,16)          -176.6357         estimate D2E/DX2                !
 ! D7    D(1,2,3,4)             58.6188         estimate D2E/DX2                !
 ! D8    D(1,2,3,8)            -58.4723         estimate D2E/DX2                !
 ! D9    D(1,2,3,14)          -179.2365         estimate D2E/DX2                !
 ! D10   D(7,2,3,4)            174.7025         estimate D2E/DX2                !
 ! D11   D(7,2,3,8)             57.6114         estimate D2E/DX2                !
 ! D12   D(7,2,3,14)           -63.1528         estimate D2E/DX2                !
 ! D13   D(15,2,3,4)           -65.092          estimate D2E/DX2                !
 ! D14   D(15,2,3,8)           177.8169         estimate D2E/DX2                !
 ! D15   D(15,2,3,14)           57.0527         estimate D2E/DX2                !
 ! D16   D(1,2,15,27)           73.4398         estimate D2E/DX2                !
 ! D17   D(3,2,15,27)         -164.2796         estimate D2E/DX2                !
 ! D18   D(7,2,15,27)          -43.6406         estimate D2E/DX2                !
 ! D19   D(2,3,4,5)            -55.1613         estimate D2E/DX2                !
 ! D20   D(2,3,4,9)             66.6605         estimate D2E/DX2                !
 ! D21   D(2,3,4,13)          -175.6525         estimate D2E/DX2                !
 ! D22   D(8,3,4,5)             61.1263         estimate D2E/DX2                !
 ! D23   D(8,3,4,9)           -177.0518         estimate D2E/DX2                !
 ! D24   D(8,3,4,13)           -59.3649         estimate D2E/DX2                !
 ! D25   D(14,3,4,5)          -178.5583         estimate D2E/DX2                !
 ! D26   D(14,3,4,9)           -56.7364         estimate D2E/DX2                !
 ! D27   D(14,3,4,13)           60.9505         estimate D2E/DX2                !
 ! D28   D(2,3,14,23)           92.3995         estimate D2E/DX2                !
 ! D29   D(2,3,14,83)         -139.8646         estimate D2E/DX2                !
 ! D30   D(4,3,14,23)         -145.3306         estimate D2E/DX2                !
 ! D31   D(4,3,14,83)          -17.5948         estimate D2E/DX2                !
 ! D32   D(8,3,14,23)          -26.3394         estimate D2E/DX2                !
 ! D33   D(8,3,14,83)          101.3965         estimate D2E/DX2                !
 ! D34   D(3,4,5,6)             52.3229         estimate D2E/DX2                !
 ! D35   D(3,4,5,10)           170.1903         estimate D2E/DX2                !
 ! D36   D(3,4,5,12)           -72.583          estimate D2E/DX2                !
 ! D37   D(9,4,5,6)            -68.9052         estimate D2E/DX2                !
 ! D38   D(9,4,5,10)            48.9622         estimate D2E/DX2                !
 ! D39   D(9,4,5,12)           166.1889         estimate D2E/DX2                !
 ! D40   D(13,4,5,6)           174.5369         estimate D2E/DX2                !
 ! D41   D(13,4,5,10)          -67.5958         estimate D2E/DX2                !
 ! D42   D(13,4,5,12)           49.6309         estimate D2E/DX2                !
 ! D43   D(3,4,13,22)           82.5051         estimate D2E/DX2                !
 ! D44   D(3,4,13,83)          -85.7613         estimate D2E/DX2                !
 ! D45   D(5,4,13,22)          -38.2809         estimate D2E/DX2                !
 ! D46   D(5,4,13,83)          153.4528         estimate D2E/DX2                !
 ! D47   D(9,4,13,22)         -157.6995         estimate D2E/DX2                !
 ! D48   D(9,4,13,83)           34.0341         estimate D2E/DX2                !
 ! D49   D(4,5,6,1)            -52.5301         estimate D2E/DX2                !
 ! D50   D(4,5,6,11)            67.8594         estimate D2E/DX2                !
 ! D51   D(4,5,6,16)          -175.5976         estimate D2E/DX2                !
 ! D52   D(10,5,6,1)          -170.7808         estimate D2E/DX2                !
 ! D53   D(10,5,6,11)          -50.3913         estimate D2E/DX2                !
 ! D54   D(10,5,6,16)           66.1517         estimate D2E/DX2                !
 ! D55   D(12,5,6,1)            66.3128         estimate D2E/DX2                !
 ! D56   D(12,5,6,11)         -173.2977         estimate D2E/DX2                !
 ! D57   D(12,5,6,16)          -56.7547         estimate D2E/DX2                !
 ! D58   D(4,5,12,21)          154.4239         estimate D2E/DX2                !
 ! D59   D(6,5,12,21)           32.4034         estimate D2E/DX2                !
 ! D60   D(10,5,12,21)         -89.3694         estimate D2E/DX2                !
 ! D61   D(1,6,16,17)           50.236          estimate D2E/DX2                !
 ! D62   D(1,6,16,18)          168.0341         estimate D2E/DX2                !
 ! D63   D(1,6,16,19)          -70.7276         estimate D2E/DX2                !
 ! D64   D(5,6,16,17)          175.7207         estimate D2E/DX2                !
 ! D65   D(5,6,16,18)          -66.4813         estimate D2E/DX2                !
 ! D66   D(5,6,16,19)           54.7571         estimate D2E/DX2                !
 ! D67   D(11,6,16,17)         -66.804          estimate D2E/DX2                !
 ! D68   D(11,6,16,18)          50.9941         estimate D2E/DX2                !
 ! D69   D(11,6,16,19)         172.2324         estimate D2E/DX2                !
 ! D70   D(4,13,83,14)          46.2816         estimate D2E/DX2                !
 ! D71   D(4,13,83,19)         -12.4587         estimate D2E/DX2                !
 ! D72   D(4,13,83,81)          19.8855         estimate D2E/DX2                !
 ! D73   D(22,13,83,14)       -115.2135         estimate D2E/DX2                !
 ! D74   D(22,13,83,19)       -173.9538         estimate D2E/DX2                !
 ! D75   D(22,13,83,81)       -141.6096         estimate D2E/DX2                !
 ! D76   D(3,14,83,13)         -16.3402         estimate D2E/DX2                !
 ! D77   D(3,14,83,19)          -0.4602         estimate D2E/DX2                !
 ! D78   D(3,14,83,81)         155.8457         estimate D2E/DX2                !
 ! D79   D(23,14,83,13)         95.9782         estimate D2E/DX2                !
 ! D80   D(23,14,83,19)        111.8581         estimate D2E/DX2                !
 ! D81   D(23,14,83,81)        -91.836          estimate D2E/DX2                !
 ! D82   D(2,15,27,26)        -135.9894         estimate D2E/DX2                !
 ! D83   D(2,15,27,28)         102.0571         estimate D2E/DX2                !
 ! D84   D(2,15,27,32)         -18.4424         estimate D2E/DX2                !
 ! D85   D(6,16,19,20)        -179.9895         estimate D2E/DX2                !
 ! D86   D(6,16,19,83)         -22.1122         estimate D2E/DX2                !
 ! D87   D(17,16,19,20)         60.4436         estimate D2E/DX2                !
 ! D88   D(17,16,19,83)       -141.6791         estimate D2E/DX2                !
 ! D89   D(18,16,19,20)        -60.4301         estimate D2E/DX2                !
 ! D90   D(18,16,19,83)         97.4472         estimate D2E/DX2                !
 ! D91   D(16,19,83,13)       -161.287          estimate D2E/DX2                !
 ! D92   D(16,19,83,14)         83.9694         estimate D2E/DX2                !
 ! D93   D(16,19,83,81)         36.2459         estimate D2E/DX2                !
 ! D94   D(20,19,83,13)        -67.7629         estimate D2E/DX2                !
 ! D95   D(20,19,83,14)        177.4935         estimate D2E/DX2                !
 ! D96   D(20,19,83,81)        129.77           estimate D2E/DX2                !
 ! D97   D(29,24,25,26)        -53.6605         estimate D2E/DX2                !
 ! D98   D(29,24,25,30)         65.8923         estimate D2E/DX2                !
 ! D99   D(29,24,25,37)        178.7665         estimate D2E/DX2                !
 ! D100  D(25,24,29,28)         54.0065         estimate D2E/DX2                !
 ! D101  D(25,24,29,34)        -66.2403         estimate D2E/DX2                !
 ! D102  D(25,24,29,38)        178.815          estimate D2E/DX2                !
 ! D103  D(24,25,26,27)         -0.5792         estimate D2E/DX2                !
 ! D104  D(24,25,26,31)       -121.098          estimate D2E/DX2                !
 ! D105  D(24,25,26,36)        117.1835         estimate D2E/DX2                !
 ! D106  D(30,25,26,27)       -121.3136         estimate D2E/DX2                !
 ! D107  D(30,25,26,31)        118.1676         estimate D2E/DX2                !
 ! D108  D(30,25,26,36)         -3.5509         estimate D2E/DX2                !
 ! D109  D(37,25,26,27)        122.6348         estimate D2E/DX2                !
 ! D110  D(37,25,26,31)          2.1161         estimate D2E/DX2                !
 ! D111  D(37,25,26,36)       -119.6025         estimate D2E/DX2                !
 ! D112  D(24,25,37,49)         65.7585         estimate D2E/DX2                !
 ! D113  D(26,25,37,49)        -59.807          estimate D2E/DX2                !
 ! D114  D(30,25,37,49)       -177.7628         estimate D2E/DX2                !
 ! D115  D(25,26,27,15)        -71.3789         estimate D2E/DX2                !
 ! D116  D(25,26,27,28)         50.5364         estimate D2E/DX2                !
 ! D117  D(25,26,27,32)        169.7587         estimate D2E/DX2                !
 ! D118  D(31,26,27,15)         49.1558         estimate D2E/DX2                !
 ! D119  D(31,26,27,28)        171.0711         estimate D2E/DX2                !
 ! D120  D(31,26,27,32)        -69.7066         estimate D2E/DX2                !
 ! D121  D(36,26,27,15)        168.078          estimate D2E/DX2                !
 ! D122  D(36,26,27,28)        -70.0068         estimate D2E/DX2                !
 ! D123  D(36,26,27,32)         49.2155         estimate D2E/DX2                !
 ! D124  D(25,26,36,44)         78.2682         estimate D2E/DX2                !
 ! D125  D(27,26,36,44)       -159.9672         estimate D2E/DX2                !
 ! D126  D(31,26,36,44)        -42.326          estimate D2E/DX2                !
 ! D127  D(15,27,28,29)         71.1775         estimate D2E/DX2                !
 ! D128  D(15,27,28,33)       -170.6843         estimate D2E/DX2                !
 ! D129  D(15,27,28,35)        -53.0453         estimate D2E/DX2                !
 ! D130  D(26,27,28,29)        -50.1031         estimate D2E/DX2                !
 ! D131  D(26,27,28,33)         68.0351         estimate D2E/DX2                !
 ! D132  D(26,27,28,35)       -174.3258         estimate D2E/DX2                !
 ! D133  D(32,27,28,29)       -168.1843         estimate D2E/DX2                !
 ! D134  D(32,27,28,33)        -50.046          estimate D2E/DX2                !
 ! D135  D(32,27,28,35)         67.593          estimate D2E/DX2                !
 ! D136  D(27,28,29,24)          0.5449         estimate D2E/DX2                !
 ! D137  D(27,28,29,34)        121.2392         estimate D2E/DX2                !
 ! D138  D(27,28,29,38)       -119.0349         estimate D2E/DX2                !
 ! D139  D(33,28,29,24)       -116.4748         estimate D2E/DX2                !
 ! D140  D(33,28,29,34)          4.2195         estimate D2E/DX2                !
 ! D141  D(33,28,29,38)        123.9454         estimate D2E/DX2                !
 ! D142  D(35,28,29,24)        121.6531         estimate D2E/DX2                !
 ! D143  D(35,28,29,34)       -117.6526         estimate D2E/DX2                !
 ! D144  D(35,28,29,38)          2.0733         estimate D2E/DX2                !
 ! D145  D(27,28,35,43)       -141.7559         estimate D2E/DX2                !
 ! D146  D(27,28,35,82)         69.8936         estimate D2E/DX2                !
 ! D147  D(29,28,35,43)         94.9781         estimate D2E/DX2                !
 ! D148  D(29,28,35,82)        -53.3723         estimate D2E/DX2                !
 ! D149  D(33,28,35,43)        -26.1693         estimate D2E/DX2                !
 ! D150  D(33,28,35,82)       -174.5198         estimate D2E/DX2                !
 ! D151  D(24,29,38,39)         62.9952         estimate D2E/DX2                !
 ! D152  D(24,29,38,40)       -178.8161         estimate D2E/DX2                !
 ! D153  D(24,29,38,41)        -54.1759         estimate D2E/DX2                !
 ! D154  D(28,29,38,39)       -173.0756         estimate D2E/DX2                !
 ! D155  D(28,29,38,40)        -54.8869         estimate D2E/DX2                !
 ! D156  D(28,29,38,41)         69.7533         estimate D2E/DX2                !
 ! D157  D(34,29,38,39)        -52.9662         estimate D2E/DX2                !
 ! D158  D(34,29,38,40)         65.2225         estimate D2E/DX2                !
 ! D159  D(34,29,38,41)       -170.1373         estimate D2E/DX2                !
 ! D160  D(28,35,82,41)         58.7492         estimate D2E/DX2                !
 ! D161  D(28,35,82,62)          8.7489         estimate D2E/DX2                !
 ! D162  D(28,35,82,81)        -26.3469         estimate D2E/DX2                !
 ! D163  D(43,35,82,41)        -73.9397         estimate D2E/DX2                !
 ! D164  D(43,35,82,62)       -123.94           estimate D2E/DX2                !
 ! D165  D(43,35,82,81)       -159.0358         estimate D2E/DX2                !
 ! D166  D(25,37,49,48)        124.382          estimate D2E/DX2                !
 ! D167  D(25,37,49,50)       -117.0881         estimate D2E/DX2                !
 ! D168  D(25,37,49,55)          2.8079         estimate D2E/DX2                !
 ! D169  D(29,38,41,42)        -55.7267         estimate D2E/DX2                !
 ! D170  D(39,38,41,42)       -174.5751         estimate D2E/DX2                !
 ! D171  D(40,38,41,42)         68.6433         estimate D2E/DX2                !
 ! D172  D(29,38,82,35)        -62.5186         estimate D2E/DX2                !
 ! D173  D(29,38,82,62)         48.1916         estimate D2E/DX2                !
 ! D174  D(29,38,82,81)         40.1093         estimate D2E/DX2                !
 ! D175  D(39,38,82,35)       -177.6926         estimate D2E/DX2                !
 ! D176  D(39,38,82,62)        -66.9824         estimate D2E/DX2                !
 ! D177  D(39,38,82,81)        -75.0647         estimate D2E/DX2                !
 ! D178  D(40,38,82,35)         68.2738         estimate D2E/DX2                !
 ! D179  D(40,38,82,62)        178.984          estimate D2E/DX2                !
 ! D180  D(40,38,82,81)        170.9016         estimate D2E/DX2                !
 ! D181  D(42,41,82,35)         -1.762          estimate D2E/DX2                !
 ! D182  D(42,41,82,62)        110.7542         estimate D2E/DX2                !
 ! D183  D(42,41,82,81)         99.2727         estimate D2E/DX2                !
 ! D184  D(50,45,46,47)        -64.0291         estimate D2E/DX2                !
 ! D185  D(50,45,46,51)         57.6114         estimate D2E/DX2                !
 ! D186  D(50,45,46,58)        179.6828         estimate D2E/DX2                !
 ! D187  D(84,45,46,47)         85.2369         estimate D2E/DX2                !
 ! D188  D(84,45,46,51)       -153.1226         estimate D2E/DX2                !
 ! D189  D(84,45,46,58)        -31.0512         estimate D2E/DX2                !
 ! D190  D(46,45,50,49)         65.3339         estimate D2E/DX2                !
 ! D191  D(46,45,50,54)        -53.4719         estimate D2E/DX2                !
 ! D192  D(46,45,50,59)       -169.1693         estimate D2E/DX2                !
 ! D193  D(84,45,50,49)       -100.4268         estimate D2E/DX2                !
 ! D194  D(84,45,50,54)        140.7674         estimate D2E/DX2                !
 ! D195  D(84,45,50,59)         25.07           estimate D2E/DX2                !
 ! D196  D(46,45,84,56)        -87.3148         estimate D2E/DX2                !
 ! D197  D(46,45,84,58)         19.7543         estimate D2E/DX2                !
 ! D198  D(46,45,84,81)         25.0068         estimate D2E/DX2                !
 ! D199  D(50,45,84,56)         64.4941         estimate D2E/DX2                !
 ! D200  D(50,45,84,58)        171.5631         estimate D2E/DX2                !
 ! D201  D(50,45,84,81)        176.8156         estimate D2E/DX2                !
 ! D202  D(45,46,47,48)         54.8872         estimate D2E/DX2                !
 ! D203  D(45,46,47,52)        -63.7967         estimate D2E/DX2                !
 ! D204  D(45,46,47,57)        174.6266         estimate D2E/DX2                !
 ! D205  D(51,46,47,48)        -65.5044         estimate D2E/DX2                !
 ! D206  D(51,46,47,52)        175.8117         estimate D2E/DX2                !
 ! D207  D(51,46,47,57)         54.235          estimate D2E/DX2                !
 ! D208  D(58,46,47,48)        172.1219         estimate D2E/DX2                !
 ! D209  D(58,46,47,52)         53.438          estimate D2E/DX2                !
 ! D210  D(58,46,47,57)        -68.1387         estimate D2E/DX2                !
 ! D211  D(45,46,58,66)        -70.8312         estimate D2E/DX2                !
 ! D212  D(45,46,58,84)         10.0456         estimate D2E/DX2                !
 ! D213  D(47,46,58,66)        171.8129         estimate D2E/DX2                !
 ! D214  D(47,46,58,84)       -107.3102         estimate D2E/DX2                !
 ! D215  D(51,46,58,66)         49.7174         estimate D2E/DX2                !
 ! D216  D(51,46,58,84)        130.5942         estimate D2E/DX2                !
 ! D217  D(46,47,48,49)        -49.9557         estimate D2E/DX2                !
 ! D218  D(46,47,48,53)         68.7665         estimate D2E/DX2                !
 ! D219  D(46,47,48,56)       -171.8593         estimate D2E/DX2                !
 ! D220  D(52,47,48,49)         67.0384         estimate D2E/DX2                !
 ! D221  D(52,47,48,53)       -174.2394         estimate D2E/DX2                !
 ! D222  D(52,47,48,56)        -54.8652         estimate D2E/DX2                !
 ! D223  D(57,47,48,49)       -173.4399         estimate D2E/DX2                !
 ! D224  D(57,47,48,53)        -54.7177         estimate D2E/DX2                !
 ! D225  D(57,47,48,56)         64.6565         estimate D2E/DX2                !
 ! D226  D(46,47,57,65)         58.2286         estimate D2E/DX2                !
 ! D227  D(48,47,57,65)       -179.1578         estimate D2E/DX2                !
 ! D228  D(52,47,57,65)        -60.7575         estimate D2E/DX2                !
 ! D229  D(47,48,49,37)        168.1414         estimate D2E/DX2                !
 ! D230  D(47,48,49,50)         49.4748         estimate D2E/DX2                !
 ! D231  D(47,48,49,55)        -70.6165         estimate D2E/DX2                !
 ! D232  D(53,48,49,37)         48.8879         estimate D2E/DX2                !
 ! D233  D(53,48,49,50)        -69.7786         estimate D2E/DX2                !
 ! D234  D(53,48,49,55)        170.13           estimate D2E/DX2                !
 ! D235  D(56,48,49,37)        -69.8256         estimate D2E/DX2                !
 ! D236  D(56,48,49,50)        171.5079         estimate D2E/DX2                !
 ! D237  D(56,48,49,55)         51.4165         estimate D2E/DX2                !
 ! D238  D(47,48,56,64)        -57.7528         estimate D2E/DX2                !
 ! D239  D(47,48,56,84)         81.5937         estimate D2E/DX2                !
 ! D240  D(49,48,56,64)        178.6351         estimate D2E/DX2                !
 ! D241  D(49,48,56,84)        -42.0184         estimate D2E/DX2                !
 ! D242  D(53,48,56,64)         61.0579         estimate D2E/DX2                !
 ! D243  D(53,48,56,84)       -159.5956         estimate D2E/DX2                !
 ! D244  D(37,49,50,45)       -173.5677         estimate D2E/DX2                !
 ! D245  D(37,49,50,54)        -53.4526         estimate D2E/DX2                !
 ! D246  D(37,49,50,59)         66.5534         estimate D2E/DX2                !
 ! D247  D(48,49,50,45)        -55.7853         estimate D2E/DX2                !
 ! D248  D(48,49,50,54)         64.3298         estimate D2E/DX2                !
 ! D249  D(48,49,50,59)       -175.6642         estimate D2E/DX2                !
 ! D250  D(55,49,50,45)         65.5849         estimate D2E/DX2                !
 ! D251  D(55,49,50,54)       -174.2999         estimate D2E/DX2                !
 ! D252  D(55,49,50,59)        -54.294          estimate D2E/DX2                !
 ! D253  D(45,50,59,60)         63.0058         estimate D2E/DX2                !
 ! D254  D(45,50,59,61)       -178.8926         estimate D2E/DX2                !
 ! D255  D(45,50,59,62)        -56.4051         estimate D2E/DX2                !
 ! D256  D(49,50,59,60)       -175.2212         estimate D2E/DX2                !
 ! D257  D(49,50,59,61)        -57.1196         estimate D2E/DX2                !
 ! D258  D(49,50,59,62)         65.3679         estimate D2E/DX2                !
 ! D259  D(54,50,59,60)        -54.7269         estimate D2E/DX2                !
 ! D260  D(54,50,59,61)         63.3747         estimate D2E/DX2                !
 ! D261  D(54,50,59,62)       -174.1378         estimate D2E/DX2                !
 ! D262  D(48,56,84,45)        -17.6825         estimate D2E/DX2                !
 ! D263  D(48,56,84,58)        -50.289          estimate D2E/DX2                !
 ! D264  D(48,56,84,81)       -113.9847         estimate D2E/DX2                !
 ! D265  D(64,56,84,45)         47.5482         estimate D2E/DX2                !
 ! D266  D(64,56,84,58)         14.9417         estimate D2E/DX2                !
 ! D267  D(64,56,84,81)        -48.7539         estimate D2E/DX2                !
 ! D268  D(46,58,66,67)       -102.6374         estimate D2E/DX2                !
 ! D269  D(46,58,66,68)         15.1398         estimate D2E/DX2                !
 ! D270  D(46,58,66,69)        137.157          estimate D2E/DX2                !
 ! D271  D(84,58,66,67)       -171.7981         estimate D2E/DX2                !
 ! D272  D(84,58,66,68)        -54.0209         estimate D2E/DX2                !
 ! D273  D(84,58,66,69)         67.9962         estimate D2E/DX2                !
 ! D274  D(46,58,84,45)        -10.1982         estimate D2E/DX2                !
 ! D275  D(46,58,84,56)         38.6083         estimate D2E/DX2                !
 ! D276  D(46,58,84,81)        174.205          estimate D2E/DX2                !
 ! D277  D(66,58,84,45)        106.3626         estimate D2E/DX2                !
 ! D278  D(66,58,84,56)        155.1691         estimate D2E/DX2                !
 ! D279  D(66,58,84,81)        -69.2342         estimate D2E/DX2                !
 ! D280  D(50,59,62,63)       -117.2504         estimate D2E/DX2                !
 ! D281  D(50,59,62,82)        102.4127         estimate D2E/DX2                !
 ! D282  D(60,59,62,63)        123.922          estimate D2E/DX2                !
 ! D283  D(60,59,62,82)        -16.4148         estimate D2E/DX2                !
 ! D284  D(61,59,62,63)          4.7533         estimate D2E/DX2                !
 ! D285  D(61,59,62,82)       -135.5836         estimate D2E/DX2                !
 ! D286  D(59,62,82,35)        169.3505         estimate D2E/DX2                !
 ! D287  D(59,62,82,41)        142.3307         estimate D2E/DX2                !
 ! D288  D(59,62,82,81)        -50.754          estimate D2E/DX2                !
 ! D289  D(63,62,82,35)         25.7551         estimate D2E/DX2                !
 ! D290  D(63,62,82,41)         -1.2648         estimate D2E/DX2                !
 ! D291  D(63,62,82,81)        165.6505         estimate D2E/DX2                !
 ! D292  D(58,66,69,70)        175.5396         estimate D2E/DX2                !
 ! D293  D(58,66,69,71)         61.0318         estimate D2E/DX2                !
 ! D294  D(58,66,69,72)        -60.8947         estimate D2E/DX2                !
 ! D295  D(67,66,69,70)         56.6537         estimate D2E/DX2                !
 ! D296  D(67,66,69,71)        -57.854          estimate D2E/DX2                !
 ! D297  D(67,66,69,72)       -179.7805         estimate D2E/DX2                !
 ! D298  D(68,66,69,70)        -63.6936         estimate D2E/DX2                !
 ! D299  D(68,66,69,71)       -178.2013         estimate D2E/DX2                !
 ! D300  D(68,66,69,72)         59.8722         estimate D2E/DX2                !
 ! D301  D(66,69,72,73)         57.721          estimate D2E/DX2                !
 ! D302  D(66,69,72,74)        172.7768         estimate D2E/DX2                !
 ! D303  D(66,69,72,75)        -65.6406         estimate D2E/DX2                !
 ! D304  D(70,69,72,73)        179.8564         estimate D2E/DX2                !
 ! D305  D(70,69,72,74)        -65.0878         estimate D2E/DX2                !
 ! D306  D(70,69,72,75)         56.4948         estimate D2E/DX2                !
 ! D307  D(71,69,72,73)        -63.9727         estimate D2E/DX2                !
 ! D308  D(71,69,72,74)         51.0831         estimate D2E/DX2                !
 ! D309  D(71,69,72,75)        172.6657         estimate D2E/DX2                !
 ! D310  D(69,72,75,76)        -53.6396         estimate D2E/DX2                !
 ! D311  D(69,72,75,77)         63.4276         estimate D2E/DX2                !
 ! D312  D(69,72,75,78)       -173.2643         estimate D2E/DX2                !
 ! D313  D(73,72,75,76)       -175.838          estimate D2E/DX2                !
 ! D314  D(73,72,75,77)        -58.7709         estimate D2E/DX2                !
 ! D315  D(73,72,75,78)         64.5372         estimate D2E/DX2                !
 ! D316  D(74,72,75,76)         67.3937         estimate D2E/DX2                !
 ! D317  D(74,72,75,77)       -175.5391         estimate D2E/DX2                !
 ! D318  D(74,72,75,78)        -52.231          estimate D2E/DX2                !
 ! D319  D(72,75,78,79)        173.9779         estimate D2E/DX2                !
 ! D320  D(72,75,78,80)         53.9288         estimate D2E/DX2                !
 ! D321  D(72,75,78,81)        -66.8489         estimate D2E/DX2                !
 ! D322  D(76,75,78,79)         52.5523         estimate D2E/DX2                !
 ! D323  D(76,75,78,80)        -67.4969         estimate D2E/DX2                !
 ! D324  D(76,75,78,81)        171.7255         estimate D2E/DX2                !
 ! D325  D(77,75,78,79)        -61.9907         estimate D2E/DX2                !
 ! D326  D(77,75,78,80)        177.9601         estimate D2E/DX2                !
 ! D327  D(77,75,78,81)         57.1825         estimate D2E/DX2                !
 ! D328  D(75,78,81,82)       -176.2091         estimate D2E/DX2                !
 ! D329  D(75,78,81,83)         64.5918         estimate D2E/DX2                !
 ! D330  D(75,78,81,84)        -57.6077         estimate D2E/DX2                !
 ! D331  D(79,78,81,82)        -54.8203         estimate D2E/DX2                !
 ! D332  D(79,78,81,83)       -174.0194         estimate D2E/DX2                !
 ! D333  D(79,78,81,84)         63.781          estimate D2E/DX2                !
 ! D334  D(80,78,81,82)         60.8944         estimate D2E/DX2                !
 ! D335  D(80,78,81,83)        -58.3047         estimate D2E/DX2                !
 ! D336  D(80,78,81,84)        179.4958         estimate D2E/DX2                !
 ! D337  D(78,81,82,35)        159.0104         estimate D2E/DX2                !
 ! D338  D(78,81,82,41)        134.1429         estimate D2E/DX2                !
 ! D339  D(78,81,82,62)        124.8709         estimate D2E/DX2                !
 ! D340  D(83,81,82,35)        -77.2693         estimate D2E/DX2                !
 ! D341  D(83,81,82,41)       -102.1368         estimate D2E/DX2                !
 ! D342  D(83,81,82,62)       -111.4088         estimate D2E/DX2                !
 ! D343  D(84,81,82,35)         36.796          estimate D2E/DX2                !
 ! D344  D(84,81,82,41)         11.9286         estimate D2E/DX2                !
 ! D345  D(84,81,82,62)          2.6565         estimate D2E/DX2                !
 ! D346  D(78,81,83,13)       -165.2951         estimate D2E/DX2                !
 ! D347  D(78,81,83,14)        169.9684         estimate D2E/DX2                !
 ! D348  D(78,81,83,19)       -149.0742         estimate D2E/DX2                !
 ! D349  D(82,81,83,13)         72.1663         estimate D2E/DX2                !
 ! D350  D(82,81,83,14)         47.4298         estimate D2E/DX2                !
 ! D351  D(82,81,83,19)         88.3872         estimate D2E/DX2                !
 ! D352  D(84,81,83,13)        -40.681          estimate D2E/DX2                !
 ! D353  D(84,81,83,14)        -65.4175         estimate D2E/DX2                !
 ! D354  D(84,81,83,19)        -24.4601         estimate D2E/DX2                !
 ! D355  D(78,81,84,45)         69.4353         estimate D2E/DX2                !
 ! D356  D(78,81,84,56)        115.6047         estimate D2E/DX2                !
 ! D357  D(78,81,84,58)         71.7222         estimate D2E/DX2                !
 ! D358  D(82,81,84,45)       -168.6671         estimate D2E/DX2                !
 ! D359  D(82,81,84,56)       -122.4977         estimate D2E/DX2                !
 ! D360  D(82,81,84,58)       -166.3803         estimate D2E/DX2                !
 ! D361  D(83,81,84,45)        -55.9961         estimate D2E/DX2                !
 ! D362  D(83,81,84,56)         -9.8268         estimate D2E/DX2                !
 ! D363  D(83,81,84,58)        -53.7093         estimate D2E/DX2                !
 --------------------------------------------------------------------------------
 Trust Radius=3.00D-01 FncErr=1.00D-07 GrdErr=1.00D-06
 Number of steps in this run=    504 maximum allowed number of steps=    504.
 GradGradGradGradGradGradGradGradGradGradGradGradGradGradGradGradGradGrad

 Leave Link  103 at Wed Apr 27 09:27:04 2016, MaxMem= 10737418240 cpu:         0.5
 (Enter /share/apps//g09/l202.exe)
 Stoichiometry    C23H44NO16(1+)
 Framework group  C1[X(C23H44NO16)]
 Deg. of freedom   246
 Full point group                 C1      NOp   1
 Largest Abelian subgroup         C1      NOp   1
 Largest concise Abelian subgroup C1      NOp   1
                         Standard orientation:                         
 ---------------------------------------------------------------------
 Center     Atomic      Atomic             Coordinates (Angstroms)
 Number     Number       Type             X           Y           Z
 ---------------------------------------------------------------------
      1          8           0       -2.030782    2.461389   -1.308693
      2          6           0       -2.084096    1.096916   -1.680244
      3          6           0       -0.875972    0.723854   -2.560856
      4          6           0        0.426745    1.002768   -1.805533
      5          6           0        0.443542    2.467278   -1.344761
      6          6           0       -0.840879    2.809224   -0.572174
      7          1           0       -3.024726    0.991427   -2.241591
      8          1           0       -0.908413    1.382742   -3.442582
      9          1           0        0.513550    0.321289   -0.946270
     10          1           0        1.299418    2.605288   -0.653387
     11          1           0       -0.812551    2.241645    0.375482
     12          8           0        0.657164    3.225825   -2.537321
     13          8           0        1.580982    0.762195   -2.630135
     14          8           0       -0.915646   -0.658412   -2.968182
     15          8           0       -2.078422    0.213902   -0.562172
     16          6           0       -0.955782    4.270613   -0.168961
     17          1           0       -1.938499    4.423431    0.306199
     18          1           0       -0.165381    4.487358    0.570997
     19          8           0       -0.817586    5.108865   -1.330560
     20          1           0       -0.891886    6.040016   -1.065062
     21          1           0        0.276296    4.120478   -2.388324
     22          1           0        1.703653    1.571951   -3.168756
     23          1           0       -1.369162   -0.695055   -3.826856
     24          8           0       -2.265770   -2.081986    1.150535
     25          6           0       -2.404042   -1.119338    2.194509
     26          6           0       -3.022934    0.218866    1.676192
     27          6           0       -3.318773    0.180300    0.170922
     28          6           0       -4.119786   -1.074862   -0.187752
     29          6           0       -3.455538   -2.363906    0.403317
     30          1           0       -3.071568   -1.516144    2.983066
     31          1           0       -2.317471    1.036773    1.877262
     32          1           0       -3.913961    1.073529   -0.071241
     33          1           0       -5.114319   -0.954620    0.268583
     34          1           0       -4.191252   -2.859515    1.068737
     35          8           0       -4.244401   -1.114803   -1.624586
     36          8           0       -4.283226    0.468194    2.313376
     37          8           0       -1.152885   -0.999120    2.824979
     38          6           0       -3.025500   -3.384264   -0.649005
     39          1           0       -2.689269   -4.296577   -0.137722
     40          1           0       -3.877808   -3.650106   -1.293372
     41          8           0       -1.911505   -2.944633   -1.435624
     42          1           0       -2.130039   -2.080629   -1.848005
     43          1           0       -5.131297   -1.439074   -1.847662
     44          1           0       -4.109647    0.812734    3.205881
     45          8           0        2.189546   -0.933779    1.254019
     46          6           0        2.810365    0.081107    2.056145
     47          6           0        1.827685    1.234768    2.236593
     48          6           0        0.497914    0.752219    2.814086
     49          6           0       -0.066663   -0.449910    2.049199
     50          6           0        1.042719   -1.517880    1.894044
     51          1           0        3.104655   -0.355342    3.036148
     52          1           0        1.652585    1.652671    1.227581
     53          1           0        0.665658    0.432970    3.861003
     54          1           0        1.313463   -1.882244    2.906800
     55          1           0       -0.418723   -0.152331    1.049501
     56          8           0       -0.455535    1.823423    2.790380
     57          8           0        2.311373    2.241746    3.124090
     58          8           0        3.908951    0.582818    1.365343
     59          6           0        0.669453   -2.737933    1.062576
     60          1           0        1.512416   -3.446928    1.108144
     61          1           0       -0.217574   -3.217149    1.494336
     62          8           0        0.431615   -2.393421   -0.305159
     63          1           0       -0.514464   -2.584463   -0.577903
     64          1           0       -0.058051    2.548829    3.305859
     65          1           0        3.154147    2.570157    2.762067
     66          6           0        5.035896   -0.324997    1.260803
     67          1           0        5.800739   -0.013042    1.990632
     68          1           0        4.708632   -1.343802    1.518390
     69          6           0        5.594827   -0.261745   -0.155848
     70          1           0        6.496854   -0.896025   -0.189703
     71          1           0        5.935355    0.767562   -0.348430
     72          6           0        4.609703   -0.671933   -1.261846
     73          1           0        3.724443   -0.020757   -1.194707
     74          1           0        5.081059   -0.461404   -2.236616
     75          6           0        4.193079   -2.148556   -1.213340
     76          1           0        5.091556   -2.787645   -1.206073
     77          1           0        3.648912   -2.360510   -0.279742
     78          6           0        3.344973   -2.610330   -2.395433
     79          1           0        3.175455   -3.694555   -2.349024
     80          1           0        3.836433   -2.384196   -3.353031
     81          7           0        1.991379   -1.960845   -2.414923
     82          1           0        1.408683   -2.325450   -3.177086
     83          1           0        2.028784   -0.923258   -2.558912
[...]
 18,0.00000762,-0.00001237,0.00001656,-0.00000881,-0.00001343,-0.000005
 26,-0.00000200,-0.00001384,0.00000597,-0.00000146,-0.00002600,-0.00002
 193,-0.00006797,-0.00012444,-0.00002808,-0.00004860,-0.00003716,-0.000
 08364,-0.00004082,-0.00010037,-0.00026451,-0.00008661,0.00013775,0.000
 00835,0.00000482,-0.00001416,0.00005625,-0.00000706,-0.00001234,0.0004
 1039,-0.00003216,-0.00013665,-0.00016562,0.00003253,0.00014108,-0.0000
 0387,0.00002909,0.00002331,0.00001252,0.00001684,0.00002027,-0.0005613
 7,0.00007457,-0.00044230,0.00083088,0.00011853,0.00016662,0.00000786,0
 .00019579,-0.00004076,0.00011381,0.00004339,0.00008569,-0.00001336,0.0
 0005706,0.00006539,0.00010765,-0.00000558,0.00008295,-0.00007704,-0.00
 003501,-0.00005483,0.00001828,-0.00003777,-0.00000276,-0.00002677,-0.0
 0002237,0.00000106,-0.00002140,0.00001740,-0.00004250,0.00002853,0.000
 03722,0.00007237,-0.00011303,-0.00012525,-0.00006913,-0.00009266,-0.00
 011584,-0.00004188,-0.00039093,-0.00022502,0.00022799,0.00016999,-0.00
 065254,0.00061640,-0.00000922,0.00006845,-0.00004115,0.00000815,0.0001
 5145,-0.00007474,0.00087194,0.00062731,-0.00026735,-0.00035369,0.00026
 033,0.00003083,0.00003222,0.00002805,-0.00002561,0.00001289,0.00006205
 ,-0.00002666,0.00025672,0.00006478,-0.00003499,-0.00006193,-0.00005403
 ,0.00006128,-0.00005788,-0.00008418,0.00001825,-0.00028311,-0.00043702
 ,-0.00089017,0.00024613,-0.00031412,0.00016500,-0.00008868,0.00008558,
 -0.00005855,0.00011942,0.00063188,0.00144916,-0.00088635,0.00085379,-0
 .00196207,-0.00038435,0.00006285,0.00024482,0.00089188,0.00009599,0.00
 066228,-0.00038428,-0.00013226,-0.00036039,-0.00017487,-0.00017035,-0.
 00008771,0.02095327,0.00937146,0.01150090,-0.00290860,0.00375184,0.003
 95054,0.00025813,-0.00015949,0.00044047,-0.18065677,-0.09553326,-0.108
 19650,-0.01407591,-0.01151138,-0.01109242,0.19153987,-0.00051352,-0.00
 016186,0.00013694,0.00056690,0.00103664,-0.00087973,0.00016291,-0.0005
 5594,0.00070916,0.00728346,0.00196600,-0.00545945,-0.00161385,0.000347
 95,0.00085727,0.00108193,0.00035132,0.00027786,-0.00016544,-0.00005501
 ,0.00023332,0.00011792,-0.00025527,-0.00006063,-0.00068373,-0.00011557
 ,0.00077024,0.00010634,-0.00010898,-0.00005244,-0.00002030,0.00007842,
 -0.00001658,-0.00007551,0.00045661,0.00109146,-0.00070871,0.00112609,0
 .00297069,-0.00159758,-0.00003509,-0.00025951,-0.00098810,-0.00073007,
 0.00043114,-0.00040026,0.00007055,-0.00000005,0.00001113,0.00009821,0.
 00017986,0.00004126,-0.00002462,-0.00001926,-0.00002800,0.00011265,0.0
 0036165,-0.00005885,-0.00007439,-0.00002468,-0.00018622,-0.00043337,-0
 .00034344,-0.00170867,-0.00201077,0.00252499,0.00028680,-0.00001325,0.
 00020715,0.00006083,-0.00027457,-0.00020483,-0.00012522,0.00034114,0.0
 0019734,-0.00001683,0.00010216,-0.00002329,0.00058175,0.00001684,-0.00
 025804,-0.00000697,0.00015772,0.00005531,-0.00001155,0.00019337,0.0000
 0943,0.00000877,-0.00002834,-0.00002369,-0.00001267,0.00004807,-0.0000
 2977,-0.00001298,-0.00001880,0.00000255,-0.00004586,-0.00002183,-0.000
 02792,0.00000572,-0.00003121,-0.00002710,-0.00014045,-0.00022432,-0.00
 008657,-0.00008177,-0.00017172,0.00004653,0.00025864,-0.00032137,-0.00
 022091,-0.00021436,-0.00012003,0.00009331,-0.00003577,-0.00002358,-0.0
 0001454,0.00007076,0.00000012,-0.00000388,0.00032450,-0.00041234,-0.00
 020266,0.00034600,0.00040778,0.00018191,0.00001367,0.00002210,0.000053
 80,0.00000881,0.00004231,0.00001985,0.00012603,0.00018133,-0.00093465,
 0.00016347,-0.00008306,0.00083576,0.00007178,0.00043042,-0.00004163,0.
 00000059,0.00018242,0.00026439,-0.00019374,0.00028632,0.00011544,-0.00
 051717,0.00007506,0.00026689,-0.00000923,0.00002575,-0.00013867,-0.000
 02344,-0.00001772,0.00004513,-0.00001666,-0.00006964,0.00001472,0.0000
 4331,0.00002291,-0.00011496,0.00006448,0.00010048,0.00005191,-0.000020
 87,-0.00044378,-0.00024693,-0.00000948,-0.00032838,-0.00021601,0.00017
 900,-0.00008447,-0.00070261,0.00021463,-0.00073019,0.00044568,-0.00004
 881,0.00001128,-0.00006254,0.00003265,0.00019491,-0.00004931,0.0013201
 3,0.00071330,-0.00086181,-0.00061571,0.00076032,0.00030141,0.00001609,
 0.00008490,-0.00001106,-0.00000339,0.00018442,0.00011273,-0.00014981,0
 .00008068,0.00042050,-0.00000283,0.00002106,-0.00013486,-0.00000911,-0
 .00013562,0.00003203,-0.00014392,-0.00008907,0.00056725,-0.00008231,0.
 00018646,-0.00012988,-0.00018331,0.00011045,-0.00014799,0.00059010,-0.
 00009611,-0.00082261,0.00106508,0.00070621,0.00146470,-0.00027414,0.00
 008784,0.00028865,-0.00043738,-0.00131967,-0.00010132,-0.00029064,0.00
 044879,0.00003036,0.00002397,-0.00023112,0.00002098,-0.00730473,-0.009
 44268,-0.00984457,0.00123570,-0.00007394,-0.00073938,-0.00037011,0.001
 14091,0.00106771,-0.10132885,-0.14299298,-0.09367121,0.01761666,0.0167
 3973,0.01721011,0.09878558,0.14244824,-0.00059948,-0.00002827,-0.00011
 860,0.00038530,0.00082005,-0.00070865,0.00084973,-0.00020970,0.0021338
 3,0.00562061,-0.00156845,-0.00682227,-0.00086822,0.00041163,-0.0001497
 0,0.00099679,0.00007896,0.00011718,-0.00018951,-0.00002005,0.00025350,
 -0.00002693,-0.00008861,-0.00015269,0.00021217,0.00007131,-0.00057241,
 0.00001840,-0.00007292,-0.00007151,0.00000002,0.00009066,-0.00004132,0
 .00010269,0.00102782,0.00145817,0.00328302,0.00462861,-0.00510688,-0.0
 0065576,-0.00044376,-0.00210982,-0.00097779,-0.00056121,0.00029902,-0.
 00032521,0.00004175,-0.00005024,0.00000152,0.00008685,0.00015747,0.000
 02136,-0.00001546,-0.00003412,-0.00002699,0.00017431,0.00038602,-0.000
 05307,-0.00008880,-0.00001922,-0.00013821,-0.00044123,-0.00038608,-0.0
 0296752,-0.00051775,0.00429456,-0.00012400,0.00009365,0.00034278,-0.00
 003259,-0.00016767,-0.00035948,0.00010910,0.00013351,0.00034104,0.0000
 1377,0.00008922,-0.00004901,0.00055678,0.00003689,-0.00021881,0.000001
 17,0.00009120,0.00011279,0.00005810,0.00013116,0.00002858,-0.00001571,
 -0.00001123,-0.00003765,0.00000072,0.00002568,-0.00003742,-0.00001747,
 -0.00000984,0.00000333,-0.00004226,-0.00001423,-0.00003347,-0.00000273
 ,-0.00002135,-0.00003104,-0.00012527,-0.00014019,-0.00015933,-0.000116
 90,-0.00013819,0.00005192,-0.00012796,-0.00023460,-0.00012379,-0.00029
 411,-0.00013313,0.00015593,-0.00002217,-0.00001785,-0.00001659,0.00007
 637,0.00000082,-0.00001394,0.00045202,-0.00033273,-0.00024268,0.000209
 92,0.00025672,0.00023109,0.00000837,0.00001276,0.00005462,0.00002276,0
 .00003544,0.00001251,-0.00044679,-0.00048283,-0.00047902,0.00009269,0.
 00021374,0.00031534,0.00002211,0.00058101,-0.00023337,0.00012599,0.000
 06734,0.00010297,-0.00004718,0.00036475,0.00001087,0.00040402,0.000277
 02,0.00015144,0.00000419,-0.00008293,-0.00003731,-0.00003871,-0.000146
 81,-0.00001327,-0.00003723,-0.00006736,0.00003600,-0.00012179,-0.00004
 483,-0.00007356,0.00012043,0.00003368,0.00005830,-0.00012980,-0.000307
 87,-0.00009431,0.00005335,-0.00033598,0.00004187,0.00017955,-0.0004168
 1,-0.00038153,0.00071793,-0.00129412,0.00046495,-0.00007981,0.00004082
 ,-0.00001679,0.00001340,0.00038541,-0.00018368,0.00292488,0.00222397,-
 0.00390842,-0.00051513,0.00082495,0.00016335,0.00003462,0.00006629,-0.
 00006202,-0.00004467,0.00015224,0.00002800,-0.00022409,0.00037025,0.00
 041486,0.00001992,-0.00002767,-0.00009864,-0.00003738,-0.00011827,0.00
 000646,0.00013210,-0.00022525,-0.00033901,0.00010755,-0.00010075,0.000
 01013,-0.00014207,0.00008584,-0.00008948,0.00006605,0.00049585,0.00107
 754,-0.00084835,0.00078584,-0.00003894,0.00025413,-0.00006979,-0.00022
 247,0.00018131,0.00038522,0.00160179,-0.00046507,0.00036875,-0.0003736
 0,-0.00002878,-0.00001103,0.00002656,-0.00906156,-0.01233359,-0.014161
 82,0.00204406,-0.00079562,-0.00080393,-0.00069293,0.00078793,-0.000020
 93,-0.10535890,-0.08536211,-0.15876048,-0.01231106,-0.00832630,-0.0098
 9816,0.10964377,0.09185215,0.17062491,-0.00061077,-0.00025194,-0.00001
 813,0.00103832,0.00120305,-0.00032091,-0.00001868,-0.00004548,-0.00003
 980,0.00171423,-0.00018291,-0.00164745,-0.00014534,0.00016294,-0.00012
 627,0.00049140,0.00008647,-0.00001811,-0.00005654,-0.00007876,0.000090
 39,-0.00004457,-0.00007007,-0.00003923,0.00050079,0.00003470,-0.000172
 50,0.00002080,-0.00001924,-0.00002604,0.00001676,0.00005945,0.00001253
 ,-0.00017118,0.00016027,0.00051427,-0.00000294,0.00150814,0.00225938,-
 0.00123341,-0.00008733,0.00094611,-0.00086925,-0.00100176,0.00012663,-
 0.00002228,0.00014425,0.00001648,-0.00000902,0.00003757,0.00008002,0.0
 0001030,-0.00001250,-0.00001411,-0.00014778,-0.00009810,0.00012218,0.0
 0001303,-0.00001220,0.00000006,0.00004358,-0.00011335,-0.00017377,-0.0
 0033225,-0.00015974,0.00014074,0.00040160,-0.00012423,-0.00029616,0.00
 060035,-0.00057797,-0.00113154,0.00002233,0.00014646,0.00124257,-0.000
 13801,0.00018804,0.00016593,0.00036540,0.00000725,-0.00007507,0.000008
 52,0.00040803,0.00009999,-0.00046053,0.00054762,-0.00013917,0.00003805
 ,0.00003131,-0.00016291,0.00003352,-0.00001071,-0.00002124,-0.00001006
 ,-0.00005227,-0.00002551,-0.00002200,-0.00007649,-0.00004455,0.0001419
 4,-0.00004928,-0.00010338,-0.00003483,-0.00060669,-0.00009283,0.000088
 90,-0.00025431,-0.00029586,-0.00023297,-0.00024291,-0.00057510,-0.0012
 2896,-0.00044540,0.00049117,-0.00012557,0.00003904,-0.00009758,0.00039
 306,-0.00008717,-0.00011527,0.00244270,-0.00212769,0.00036154,0.000388
 32,0.00100109,0.00001563,-0.00003789,0.00015930,0.00001744,-0.00000466
 ,0.00005755,0.00013473,-0.00333697,-0.00058590,0.00005730,0.00198113,0
 .00015721,0.00015207,0.00027796,0.00026866,-0.00008804,0.00066122,0.00
 011514,0.00028739,-0.00041064,0.00028858,0.00040802,0.00314040,0.00134
 324,0.00004120,-0.00006605,-0.00014906,0.00000100,-0.00001611,-0.00009
 951,-0.00002964,-0.00007034,-0.00006270,-0.00001762,-0.00084308,0.0000
 0388,-0.00043719,0.00013087,0.00020164,0.00035590,-0.00047977,-0.00032
 569,-0.00041624,-0.00045077,-0.00009403,-0.00005942,-0.00152679,-0.000
 16020,0.00113692,0.00767636,-0.01167675,0.00300353,-0.00032561,0.00142
 008,-0.00007281,0.00003423,0.00321366,-0.00167452,-0.00438218,0.012599
 85,-0.00625882,-0.00503976,0.00494083,-0.00042376,0.00011891,0.0000111
 6,-0.00004487,0.00006325,0.00003019,-0.00010578,0.00048085,-0.00028655
 ,-0.00073392,-0.00002434,-0.00000793,0.00020848,0.00004067,0.00013612,
 -0.00009471,-0.00002364,0.00029013,-0.00022279,-0.00000612,-0.00014266
 ,0.00008402,0.00014051,-0.00013125,0.00016654,-0.00049016,-0.00025063,
 0.00017187,-0.00042237,-0.00018073,-0.00051109,0.00010138,-0.00006774,
 -0.00001349,-0.00047543,-0.00061233,-0.00086186,0.00087214,-0.00040560
 ,0.00002395,0.00028204,0.00068541,0.00002974,-0.01039458,-0.00072021,0
 .01137792,0.00103157,-0.00068881,-0.00136610,0.00081777,0.00027352,-0.
 00018516,-0.14063411,-0.07726703,0.07820131,0.01772292,0.01333903,-0.0
 1513762,-0.01190798,-0.01139852,0.00823842,0.14293822,-0.00029081,-0.0
 0021048,0.00035910,0.00081501,0.00074066,-0.00052765,-0.00051468,-0.00
 030066,-0.00101835,0.00071016,-0.00044261,-0.00087605,-0.00011296,0.00
 016118,-0.00038167,0.00022919,0.00018270,-0.00011035,-0.00002005,-0.00
 006943,0.00005999,0.00001918,0.00003339,0.00014433,0.00012163,0.000412
 46,-0.00052051,0.00009793,-0.00002042,0.00005873,0.00000345,0.00004967
 ,-0.00000558,0.00004060,0.00017644,0.00051786,0.00033705,0.00095884,0.
 00121121,-0.00070664,0.00087435,0.00101677,-0.00078058,-0.00072247,0.0
 0044672,-0.00004485,0.00009848,-0.00001577,-0.00000739,0.00003354,0.00
 005829,0.00002942,-0.00000982,0.00000581,-0.00007277,-0.00005837,0.000
 13301,-0.00000792,-0.00001088,-0.00000583,0.00001900,-0.00008426,-0.00
 018004,-0.00027209,-0.00010822,0.00014490,0.00025721,0.00021625,0.0001
 8784,0.00055338,-0.00059156,-0.00064317,-0.00017560,0.00035094,0.00065
 050,-0.00010481,0.00017003,0.00008705,0.00045502,0.00006837,-0.0001954
 8,-0.00000042,0.00030692,-0.00000632,-0.00047572,0.00048450,-0.0001501
 3,0.00004271,-0.00000300,-0.00009822,0.00000307,0.00001731,-0.00001516
 ,-0.00003210,-0.00004247,0.00000745,-0.00003349,-0.00005744,-0.0000306
 4,0.00011444,-0.00006269,-0.00001358,-0.00006346,-0.00043312,0.0000479
 2,0.00005183,-0.00023069,-0.00014459,0.00022518,-0.00038302,-0.0004580
 3,-0.00045123,0.00003386,0.00015954,-0.00014537,-0.00000943,-0.0000652
 0,0.00016272,-0.00006285,-0.00001964,0.00108857,-0.00249443,0.00074846
 ,0.00087760,0.00049879,-0.00020764,-0.00001398,0.00008379,0.00001193,-
 0.00001226,0.00004881,0.00008556,-0.00210986,-0.00011137,-0.00130884,0
 .00229127,0.00012993,0.00057247,0.00010148,0.00038467,0.00001895,0.000
 33748,0.00014268,0.00035275,-0.00042865,0.00039176,0.00033485,0.000777
 69,0.00046155,0.00073553,-0.00015399,-0.00002055,-0.00018224,-0.000023
 53,-0.00006794,-0.00001307,-0.00003985,-0.00006166,0.00000182,-0.00031
 057,0.00008378,-0.00034196,0.00009602,0.00017995,0.00014914,-0.0002245
 6,-0.00038103,-0.00041152,-0.00032040,-0.00021025,-0.00029804,-0.00116
 241,-0.00011604,0.00061460,0.00111927,-0.00717817,0.00261104,-0.000389
 29,0.00043348,-0.00009983,0.00014029,0.00139081,-0.00080199,0.00949837
 ,-0.00834427,-0.00208282,-0.00035409,0.00916283,-0.00386623,0.00005865
 ,0.00002685,-0.00000626,0.00007129,0.00007986,0.00000003,0.00049468,-0
 .00019513,-0.00040260,-0.00007469,-0.00001074,0.00009091,0.00000065,-0
 .00002063,-0.00004813,0.00001715,0.00013130,-0.00007234,0.00000266,-0.
 00007681,0.00005416,0.00004845,-0.00007804,0.00007924,-0.00017633,-0.0
 0042560,0.00062893,-0.00003467,0.00012095,-0.00029344,-0.00037161,-0.0
 0013176,-0.00007786,0.00044628,0.00226711,-0.00185077,-0.00014293,-0.0
 0040305,0.00038470,-0.00003812,-0.00113423,0.00075607,0.01383118,0.020
 55968,-0.01204326,-0.00010722,0.00000473,-0.00057396,0.00337841,-0.004
 16101,-0.00452261,-0.07369697,-0.13797127,0.07523030,-0.01337005,-0.01
 366783,0.01210316,-0.00789821,-0.00983948,0.00712506,0.06680152,0.1490
 6200,0.00030534,0.00024317,-0.00007496,-0.00063724,-0.00088316,0.00024
 333,0.00060090,-0.00010544,0.00039215,-0.00212317,-0.00134021,0.001713
 54,0.00017255,-0.00010370,-0.00041528,-0.00024969,-0.00017993,-0.00002
 687,0.00001785,0.00007839,-0.00003567,-0.00010501,0.00013056,-0.000099
 49,-0.00002152,-0.00013994,-0.00080196,-0.00004055,0.00002930,0.000017
 51,0.00001247,-0.00003178,-0.00003634,0.00026707,0.00024245,-0.0001742
 1,0.00026336,-0.00137725,-0.00364649,0.00052311,-0.00019650,-0.0014835
 9,0.00034617,0.00073560,-0.00005585,-0.00000496,-0.00013613,-0.0000407
 1,0.00000447,-0.00001801,-0.00004456,-0.00001903,0.00001143,-0.0000033
 1,0.00011523,0.00013555,-0.00004110,-0.00001067,-0.00000942,-0.0000069
 1,0.00002326,0.00006872,0.00004184,0.00020103,0.00009990,-0.00017121,-
 0.00024093,0.00015604,0.00028787,-0.00058069,0.00050185,0.00046099,0.0
 0033594,-0.00034921,-0.00056328,0.00012337,-0.00012217,-0.00016368,-0.
 00007653,0.00001972,0.00002018,-0.00000233,-0.00026699,0.00002474,0.00
 052360,-0.00044514,0.00016147,-0.00006626,0.00000225,0.00009007,-0.000
 01407,-0.00001074,-0.00000787,-0.00002114,0.00003890,0.00002496,0.0000
 0366,0.00004611,0.00001264,-0.00012468,0.00004830,0.00002431,-0.000009
 99,0.00040059,-0.00006968,-0.00012692,0.00017843,0.00022201,-0.0003987
 7,0.00023210,0.00053518,0.00050061,0.00006807,-0.00022346,0.00009418,-
 0.00003162,0.00008240,-0.00019260,0.00006694,0.00003870,-0.00128961,0.
 00188699,-0.00076822,-0.00022541,-0.00054075,0.00021557,0.00002603,-0.
 00009325,0.00001252,0.00002207,-0.00003770,-0.00009770,0.00228293,-0.0
 0072475,0.00144166,-0.00281699,-0.00015108,-0.00065388,-0.00016205,-0.
 00013472,-0.00016053,-0.00035112,-0.00019303,-0.00040295,0.00045326,0.
 00002008,-0.00049539,-0.00016648,0.00036895,-0.00085342,0.00024533,-0.
 00003997,0.00026101,-0.00002022,-0.00001667,0.00001210,0.00004876,0.00
 002552,0.00003737,0.00020694,-0.00017322,0.00034315,0.00001419,-0.0002
 8606,-0.00036740,0.00022070,0.00031281,0.00043051,0.00044350,0.0000785
 6,0.00036541,0.00151687,-0.00005006,-0.00097055,-0.00397851,0.00658021
 ,-0.00378028,0.00012585,-0.00104134,0.00032652,-0.00008224,-0.00204539
 ,0.00096138,-0.00513223,-0.00297203,-0.00232968,0.00199669,-0.00608776
 ,0.00207469,-0.00006583,-0.00001176,-0.00001889,-0.00010754,-0.0000371
 0,0.00002589,-0.00058806,0.00045361,0.00074182,0.00007028,-0.00002249,
 -0.00015916,-0.00003100,-0.00005961,0.00006811,0.00000891,-0.00028214,
 0.00007036,0.00004757,0.00007439,-0.00006556,-0.00011144,0.00011813,-0
 .00013476,0.00015846,0.00053631,-0.00012499,-0.00008709,-0.00021232,0.
 00027930,0.00013515,-0.00003254,-0.00015607,-0.00090293,-0.00007385,0.
 00228889,-0.00064811,0.00052923,-0.00039137,0.00033165,-0.00022882,0.0
 0043355,0.01412922,0.00564639,-0.01495645,-0.00052919,0.00083779,-0.00
 015564,0.00020303,-0.00160176,-0.00044971,0.07349744,0.07409679,-0.138
 83463,0.00866174,0.01040592,-0.00950110,-0.01066251,-0.00960929,0.0223
 8777,-0.07625543,-0.07299928,0.14684337\\-0.00001625,-0.00000292,-0.00
 001400,0.00002299,0.00003417,0.00001687,0.00000444,-0.00000816,-0.0000
 0822,0.00000655,-0.00000501,-0.00001871,-0.00000104,-0.00000615,0.0000
 1667,0.00000754,-0.00000493,0.00000580,0.00000150,-0.00000030,-0.00000
 218,0.00000546,0.00000299,0.00000419,0.00000189,-0.00000168,0.00000658
 ,0.00000081,-0.00000709,0.00000548,-0.00000236,-0.00000284,0.00000114,
 -0.00000389,0.00000473,-0.00000684,0.00002664,0.00000838,-0.00000426,-
 0.00001656,-0.00000064,0.00001776,-0.00003172,-0.00001971,0.00002081,-
 0.00000512,-0.00000657,-0.00000040,-0.00000171,-0.00000203,0.00000371,
 -0.00000092,-0.00000609,0.00000344,0.00002740,-0.00000704,-0.00000268,
 -0.00001603,0.00000203,0.00001370,0.00000612,-0.00000567,0.00000983,0.
 00000479,0.00000375,0.00002056,0.00001953,0.00000524,-0.00001291,-0.00
 000883,0.00000863,-0.00000727,0.00000638,-0.00001079,-0.00000190,-0.00
 000685,0.00000669,-0.00000015,0.00005057,0.00000666,-0.00002575,-0.000
 02138,0.00001403,-0.00000683,0.00000538,-0.00000398,-0.00000012,-0.000
 00561,0.00000264,-0.00000362,-0.00000090,-0.00000551,-0.00000026,-0.00
 000464,0.00000368,0.00000389,0.00000138,0.00000351,-0.00000444,-0.0000
 0378,0.00000711,-0.00000705,0.00001040,-0.00000438,0.00000633,-0.00001
 066,0.00000594,-0.00000854,-0.00000453,0.00000887,-0.00000717,0.000014
 06,0.00001246,-0.00001247,0.00000005,0.00000484,-0.00000653,-0.0000009
 2,0.00000851,-0.00000402,-0.00000386,-0.00000465,-0.00000333,0.0000077
 8,0.00000927,-0.00000148,0.00000197,0.00000874,-0.00001261,-0.00000295
 ,0.00000123,-0.00000060,-0.00000876,-0.00000353,0.00001329,-0.00000056
 ,-0.00000439,-0.00001109,0.00001444,-0.00000234,0.00001602,-0.00000937
 ,0.00000512,0.00001150,-0.00001445,-0.00000195,-0.00000260,0.00001925,
 0.00000273,-0.00001505,-0.00000645,-0.00000526,0.00000418,-0.00000235,
 -0.00000008,-0.00000310,-0.00000690,-0.00000528,-0.00000179,-0.0000084
 0,-0.00000249,-0.00000170,0.00000037,0.00000242,-0.00000083,-0.0000111
 1,-0.00000424,-0.00000637,-0.00001631,-0.00000612,-0.00000663,0.000009
 66,-0.00001624,0.00002262,0.00000147,0.00001093,-0.00000175,-0.0000031
 4,-0.00000091,-0.00000435,-0.00000377,0.00000188,-0.00000083,0.0000025
 8,-0.00001307,-0.00000220,-0.00000125,0.00001234,-0.00000700,0.0000025
 6,-0.00000324,-0.00000069,-0.00000136,-0.00000238,0.00000517,-0.000018
 28,0.00001211,-0.00000387,-0.00000335,-0.00000950,0.00000264,-0.000002
 77,-0.00000306,-0.00000002,0.00000170,-0.00000631,-0.00000203,0.000000
 68,-0.00000428,0.00000425,-0.00000063,-0.00000411,0.00000707,0.0000031
 3,-0.00000327,0.00000676,0.00000091,-0.00000185,0.00000443,0.00000216,
 -0.00000126,0.00000321,-0.00000148,0.00000073,-0.00000014,0.00000251,-
 0.00000253,0.00000210,-0.00000085,-0.00000152,0.00000007,0.00001773,-0
 .00001033,-0.00000871,0.00000235,0.00000258,-0.00000079,0.00000512,0.0
 0000228,0.00000301,-0.00000295,0.00003285,0.00003293,0.00000172,0.0000
 0090,-0.00000825,-0.00002268,-0.00001168,-0.00000513,-0.00000425,-0.00
 001363,-0.00001674\\\@


 THE WORLD IS NOT A HAMBURGER - YOU CAN'T HAVE IT YOUR WAY.
 Job cpu time:      19 days 18 hours 48 minutes  6.0 seconds.
 File lengths (MBytes):  RWF=  17333 Int=      0 D2E=      0 Chk=    104 Scr=      1
 Normal termination of Gaussian 09 at Fri Apr 29 20:45:25 2016.
