 Entering Gaussian System, Link 0=g09
 Initial command:
 /share/apps//g09/l1.exe "/scratch/Gau-43813.inp" -scrdir="/scratch/"
 Entering Link 1 = /share/apps//g09/l1.exe PID=     43814.
  
 Copyright (c) 1988,1990,1992,1993,1995,1998,2003,2009,2013,
            Gaussian, Inc.  All Rights Reserved.
  
 This is part of the Gaussian(R) 09 program.  It is based on
 the Gaussian(R) 03 system (copyright 2003, Gaussian, Inc.),
 the Gaussian(R) 98 system (copyright 1998, Gaussian, Inc.),
 the Gaussian(R) 94 system (copyright 1995, Gaussian, Inc.),
 the Gaussian 92(TM) system (copyright 1992, Gaussian, Inc.),
 the Gaussian 90(TM) system (copyright 1990, Gaussian, Inc.),
 the Gaussian 88(TM) system (copyright 1988, Gaussian, Inc.),
 the Gaussian 86(TM) system (copyright 1986, Carnegie Mellon
 University), and the Gaussian 82(TM) system (copyright 1983,
 Carnegie Mellon University). Gaussian is a federally registered
 trademark of Gaussian, Inc.
  
 This software contains proprietary and confidential information,
 including trade secrets, belonging to Gaussian, Inc.
  
 This software is provided under written license and may be
 used, copied, transmitted, or stored only in accord with that
 written license.
  
 The following legend is applicable only to US Government
 contracts under FAR:
  
                    RESTRICTED RIGHTS LEGEND
  
 Use, reproduction and disclosure by the US Government is
 subject to restrictions as set forth in subparagraphs (a)
 and (c) of the Commercial Computer Software - Restricted
 Rights clause in FAR 52.227-19.
  
 Gaussian, Inc.
 340 Quinnipiac St., Bldg. 40, Wallingford CT 06492
  
  
 ---------------------------------------------------------------
 Warning -- This program may not be used in any manner that
 competes with the business of Gaussian, Inc. or will provide
 assistance to any competitor of Gaussian, Inc.  The licensee
 of this program is prohibited from giving any competitor of
 Gaussian, Inc. access to this program.  By using this program,
 the user acknowledges that Gaussian, Inc. is engaged in the
 business of creating and licensing software in the field of
 computational chemistry and represents and warrants to the
 licensee that it is not a competitor of Gaussian, Inc. and that
 it will not use this program in any manner prohibited above.
 ---------------------------------------------------------------
  

 Cite this work as:
 Gaussian 09, Revision D.01,
 M. J. Frisch, G. W. Trucks, H. B. Schlegel, G. E. Scuseria, 
 M. A. Robb, J. R. Cheeseman, G. Scalmani, V. Barone, B. Mennucci, 
 G. A. Petersson, H. Nakatsuji, M. Caricato, X. Li, H. P. Hratchian, 
 A. F. Izmaylov, J. Bloino, G. Zheng, J. L. Sonnenberg, M. Hada, 
 M. Ehara, K. Toyota, R. Fukuda, J. Hasegawa, M. Ishida, T. Nakajima, 
 Y. Honda, O. Kitao, H. Nakai, T. Vreven, J. A. Montgomery, Jr., 
 J. E. Peralta, F. Ogliaro, M. Bearpark, J. J. Heyd, E. Brothers, 
 K. N. Kudin, V. N. Staroverov, T. Keith, R. Kobayashi, J. Normand, 
 K. Raghavachari, A. Rendell, J. C. Burant, S. S. Iyengar, J. Tomasi, 
 M. Cossi, N. Rega, J. M. Millam, M. Klene, J. E. Knox, J. B. Cross, 
 V. Bakken, C. Adamo, J. Jaramillo, R. Gomperts, R. E. Stratmann, 
 O. Yazyev, A. J. Austin, R. Cammi, C. Pomelli, J. W. Ochterski, 
 R. L. Martin, K. Morokuma, V. G. Zakrzewski, G. A. Voth, 
 P. Salvador, J. J. Dannenberg, S. Dapprich, A. D. Daniels, 
 O. Farkas, J. B. Foresman, J. V. Ortiz, J. Cioslowski, 
 and D. J. Fox, Gaussian, Inc., Wallingford CT, 2013.
 
 ******************************************
 Gaussian 09:  EM64L-G09RevD.01 24-Apr-2013
                22-Mar-2016 
 ******************************************
 %nproc=20
 Will use up to   20 processors via shared memory.
 %mem=80GB
 %chk=Tri_A154_of.chk
 -------------------------------------------------------------------
 #P PBE1PBE/6-311+G(d,p) opt optcyc=999 freq EmpiricalDispersion=GD3
 -------------------------------------------------------------------
 1/6=999,14=-1,18=20,19=15,26=3,38=1/1,3;
 2/9=110,12=2,17=6,18=5,40=1/2;
 3/5=4,6=6,7=111,11=2,16=1,25=1,30=1,71=1,74=-13,124=31/1,2,3;
 4//1;
 5/5=2,38=5/2;
 6/7=2,8=2,9=2,10=2,28=1/1;
 7//1,2,3,16;
 1/6=999,14=-1,18=20,19=15,26=3/3(2);
 2/9=110/2;
 99//99;
 2/9=110/2;
 3/5=4,6=6,7=111,11=2,16=1,25=1,30=1,71=1,74=-13,124=31/1,2,3;
 4/5=5,16=3,69=1/1;
 5/5=2,38=5/2;
 7//1,2,3,16;
 1/6=999,14=-1,18=20,19=15,26=3/3(-5);
 2/9=110/2;
 6/7=2,8=2,9=2,10=2,19=2,28=1/1;
 99/9=1/99;
 Leave Link    1 at Tue Mar 22 19:49:47 2016, MaxMem= 10737418240 cpu:         1.7
 (Enter /share/apps//g09/l101.exe)
 -------
 disacch
 -------
 Symbolic Z-matrix:
 Charge =  1 Multiplicity = 1
 O                    -3.64017  -0.15381   0.28161 
 C                    -3.0958    0.02501   1.60484 
 C                    -2.62014   1.46092   1.84863 
 C                    -3.65071   2.49777   1.41004 
 C                    -4.10201   2.24233  -0.03259 
 C                    -4.60993   0.80626  -0.16891 
 C                    -5.0463    0.35916  -1.57591 
 O                    -3.96214   0.05453  -2.45423 
 O                    -3.01946   2.53791  -0.93635 
 O                    -3.09552   3.81589   1.4274 
 O                    -2.34546   1.67865   3.22184 
 O                    -1.95421  -0.77305   1.62589 
 C                    -1.9214   -2.00886   2.36296 
 C                    -0.82971  -1.86399   3.4205 
 O                    -1.18271  -0.80351   4.31973 
 C                     0.48084  -1.53574   2.71322 
 C                     0.82939  -2.54372   1.59502 
 O                    -0.29456  -2.86057   0.7552 
 C                    -1.52747  -3.15448   1.41366 
 C                    -2.54418  -3.4865    0.31291 
 O                    -2.66513  -2.49643  -0.71441 
 O                     1.85002  -2.07463   0.74176 
 C                     1.58457  -0.83574   0.05815 
 C                     2.61885   0.21243   0.48511 
 C                     2.43112   1.50266  -0.31184 
 C                     2.48037   1.2351   -1.81696 
 O                     1.56255   0.19017  -2.15491 
 C                     1.71908  -1.06321  -1.46226 
 C                     0.68304  -1.9977   -2.08778 
 O                    -0.63061  -1.43023  -2.09798 
 O                     2.03008   2.39202  -2.46638 
 C                     2.46925   2.59772  -3.84474 
 C                     1.28034   2.60218  -4.80068 
 C                     0.68639   1.20246  -5.0694 
 C                    -0.8447    1.12156  -5.18276 
 C                    -1.64191   1.68983  -4.00836 
 N                    -1.168     1.21175  -2.66409 
 O                     3.46056   2.39258   0.113 
 O                     2.49765   0.49932   1.88448 
 O                     1.512    -1.48042   3.68845 
 H                    -3.83624  -0.28848   2.3675 
 H                    -1.70955   1.58692   1.22948 
 H                    -4.52896   2.44243   2.08089 
 H                    -4.94887   2.91594  -0.25974 
 H                    -5.51489   0.75169   0.47068 
 H                    -5.62894   1.17078  -2.03649 
 H                    -5.71172  -0.51182  -1.47239 
 H                    -3.77195  -0.89678  -2.3772 
 H                    -2.6348    3.36404  -0.57405 
 H                    -2.67204   3.9424    2.29698 
 H                    -1.81887   0.91931   3.56617 
 H                    -2.89869  -2.20713   2.83496 
 H                    -0.74039  -2.81208   3.98288 
 H                    -0.39402  -0.66251   4.88028 
 H                     0.3406   -0.54308   2.26142 
 H                     1.24659  -3.46276   2.04439 
 H                    -1.43364  -4.07276   2.03182 
 H                    -2.21917  -4.40644  -0.19129 
 H                    -3.52506  -3.6858    0.77864 
 H                    -3.01845  -1.66675  -0.31046 
 H                     0.56115  -0.48311   0.26487 
 H                     3.62806  -0.19664   0.28329 
 H                     1.43005   1.91709  -0.07851 
 H                     3.50768   0.96755  -2.13757 
 H                     2.72025  -1.49277  -1.66501 
 H                     0.98408  -2.18023  -3.1315 
 H                     0.6889   -2.95366  -1.54829 
 H                    -1.23877  -1.92843  -1.48605 
 H                     3.1997    1.81767  -4.11315 
 H                     2.98185   3.571    -3.85933 
 H                     1.60639   3.06783  -5.74375 
 H                     0.53055   3.29529  -4.38468 
 H                     1.01215   0.51465  -4.27672 
 H                     1.11598   0.79975  -5.99866 
 H                    -1.12622   0.06656  -5.32873 
 H                    -1.19709   1.65554  -6.0801 
 H                    -1.59758   2.78702  -3.97599 
 H                    -2.69736   1.40199  -4.07754 
 H                    -1.06139   0.1625   -2.57584 
 H                    -1.84618   1.52965  -1.9368 
 H                    -0.22824   1.57851  -2.44554 
 H                     3.2828    3.2696   -0.27063 
 H                     3.08171   1.2638    2.05088 
 H                     2.18373  -0.87087   3.31505 
 
 NAtoms=     84 NQM=       84 NQMF=       0 NMMI=      0 NMMIF=      0
                NMic=       0 NMicF=      0.
                    Isotopes and Nuclear Properties:
 (Nuclear quadrupole moments (NQMom) in fm**2, nuclear magnetic moments (NMagM)
  in nuclear magnetons)

  Atom         1           2           3           4           5           6           7           8           9          10
 IAtWgt=          16          12          12          12          12          12          12          16          16          16
 AtmWgt=  15.9949146  12.0000000  12.0000000  12.0000000  12.0000000  12.0000000  12.0000000  15.9949146  15.9949146  15.9949146
 NucSpn=           0           0           0           0           0           0           0           0           0           0
 AtZEff=   0.0000000   0.0000000   0.0000000   0.0000000   0.0000000   0.0000000   0.0000000   0.0000000   0.0000000   0.0000000
 NQMom=    0.0000000   0.0000000   0.0000000   0.0000000   0.0000000   0.0000000   0.0000000   0.0000000   0.0000000   0.0000000
 NMagM=    0.0000000   0.0000000   0.0000000   0.0000000   0.0000000   0.0000000   0.0000000   0.0000000   0.0000000   0.0000000
 AtZNuc=   8.0000000   6.0000000   6.0000000   6.0000000   6.0000000   6.0000000   6.0000000   8.0000000   8.0000000   8.0000000

  Atom        11          12          13          14          15          16          17          18          19          20
 IAtWgt=          16          16          12          12          16          12          12          16          12          12
 AtmWgt=  15.9949146  15.9949146  12.0000000  12.0000000  15.9949146  12.0000000  12.0000000  15.9949146  12.0000000  12.0000000
 NucSpn=           0           0           0           0           0           0           0           0           0           0
 AtZEff=   0.0000000   0.0000000   0.0000000   0.0000000   0.0000000   0.0000000   0.0000000   0.0000000   0.0000000   0.0000000
 NQMom=    0.0000000   0.0000000   0.0000000   0.0000000   0.0000000   0.0000000   0.0000000   0.0000000   0.0000000   0.0000000
 NMagM=    0.0000000   0.0000000   0.0000000   0.0000000   0.0000000   0.0000000   0.0000000   0.0000000   0.0000000   0.0000000
 AtZNuc=   8.0000000   8.0000000   6.0000000   6.0000000   8.0000000   6.0000000   6.0000000   8.0000000   6.0000000   6.0000000

  Atom        21          22          23          24          25          26          27          28          29          30
 IAtWgt=          16          16          12          12          12          12          16          12          12          16
 AtmWgt=  15.9949146  15.9949146  12.0000000  12.0000000  12.0000000  12.0000000  15.9949146  12.0000000  12.0000000  15.9949146
 NucSpn=           0           0           0           0           0           0           0           0           0           0
 AtZEff=   0.0000000   0.0000000   0.0000000   0.0000000   0.0000000   0.0000000   0.0000000   0.0000000   0.0000000   0.0000000
 NQMom=    0.0000000   0.0000000   0.0000000   0.0000000   0.0000000   0.0000000   0.0000000   0.0000000   0.0000000   0.0000000
 NMagM=    0.0000000   0.0000000   0.0000000   0.0000000   0.0000000   0.0000000   0.0000000   0.0000000   0.0000000   0.0000000
 AtZNuc=   8.0000000   8.0000000   6.0000000   6.0000000   6.0000000   6.0000000   8.0000000   6.0000000   6.0000000   8.0000000

  Atom        31          32          33          34          35          36          37          38          39          40
 IAtWgt=          16          12          12          12          12          12          14          16          16          16
 AtmWgt=  15.9949146  12.0000000  12.0000000  12.0000000  12.0000000  12.0000000  14.0030740  15.9949146  15.9949146  15.9949146
 NucSpn=           0           0           0           0           0           0           2           0           0           0
 AtZEff=   0.0000000   0.0000000   0.0000000   0.0000000   0.0000000   0.0000000   0.0000000   0.0000000   0.0000000   0.0000000
 NQMom=    0.0000000   0.0000000   0.0000000   0.0000000   0.0000000   0.0000000   2.0440000   0.0000000   0.0000000   0.0000000
 NMagM=    0.0000000   0.0000000   0.0000000   0.0000000   0.0000000   0.0000000   0.4037610   0.0000000   0.0000000   0.0000000
 AtZNuc=   8.0000000   6.0000000   6.0000000   6.0000000   6.0000000   6.0000000   7.0000000   8.0000000   8.0000000   8.0000000

  Atom        41          42          43          44          45          46          47          48          49          50
 IAtWgt=           1           1           1           1           1           1           1           1           1           1
 AtmWgt=   1.0078250   1.0078250   1.0078250   1.0078250   1.0078250   1.0078250   1.0078250   1.0078250   1.0078250   1.0078250
 NucSpn=           1           1           1           1           1           1           1           1           1           1
 AtZEff=   0.0000000   0.0000000   0.0000000   0.0000000   0.0000000   0.0000000   0.0000000   0.0000000   0.0000000   0.0000000
 NQMom=    0.0000000   0.0000000   0.0000000   0.0000000   0.0000000   0.0000000   0.0000000   0.0000000   0.0000000   0.0000000
 NMagM=    2.7928460   2.7928460   2.7928460   2.7928460   2.7928460   2.7928460   2.7928460   2.7928460   2.7928460   2.7928460
 AtZNuc=   1.0000000   1.0000000   1.0000000   1.0000000   1.0000000   1.0000000   1.0000000   1.0000000   1.0000000   1.0000000

  Atom        51          52          53          54          55          56          57          58          59          60
 IAtWgt=           1           1           1           1           1           1           1           1           1           1
 AtmWgt=   1.0078250   1.0078250   1.0078250   1.0078250   1.0078250   1.0078250   1.0078250   1.0078250   1.0078250   1.0078250
 NucSpn=           1           1           1           1           1           1           1           1           1           1
 AtZEff=   0.0000000   0.0000000   0.0000000   0.0000000   0.0000000   0.0000000   0.0000000   0.0000000   0.0000000   0.0000000
 NQMom=    0.0000000   0.0000000   0.0000000   0.0000000   0.0000000   0.0000000   0.0000000   0.0000000   0.0000000   0.0000000
 NMagM=    2.7928460   2.7928460   2.7928460   2.7928460   2.7928460   2.7928460   2.7928460   2.7928460   2.7928460   2.7928460
 AtZNuc=   1.0000000   1.0000000   1.0000000   1.0000000   1.0000000   1.0000000   1.0000000   1.0000000   1.0000000   1.0000000

  Atom        61          62          63          64          65          66          67          68          69          70
 IAtWgt=           1           1           1           1           1           1           1           1           1           1
 AtmWgt=   1.0078250   1.0078250   1.0078250   1.0078250   1.0078250   1.0078250   1.0078250   1.0078250   1.0078250   1.0078250
 NucSpn=           1           1           1           1           1           1           1           1           1           1
 AtZEff=   0.0000000   0.0000000   0.0000000   0.0000000   0.0000000   0.0000000   0.0000000   0.0000000   0.0000000   0.0000000
 NQMom=    0.0000000   0.0000000   0.0000000   0.0000000   0.0000000   0.0000000   0.0000000   0.0000000   0.0000000   0.0000000
 NMagM=    2.7928460   2.7928460   2.7928460   2.7928460   2.7928460   2.7928460   2.7928460   2.7928460   2.7928460   2.7928460
 AtZNuc=   1.0000000   1.0000000   1.0000000   1.0000000   1.0000000   1.0000000   1.0000000   1.0000000   1.0000000   1.0000000

  Atom        71          72          73          74          75          76          77          78          79          80
 IAtWgt=           1           1           1           1           1           1           1           1           1           1
 AtmWgt=   1.0078250   1.0078250   1.0078250   1.0078250   1.0078250   1.0078250   1.0078250   1.0078250   1.0078250   1.0078250
 NucSpn=           1           1           1           1           1           1           1           1           1           1
 AtZEff=   0.0000000   0.0000000   0.0000000   0.0000000   0.0000000   0.0000000   0.0000000   0.0000000   0.0000000   0.0000000
 NQMom=    0.0000000   0.0000000   0.0000000   0.0000000   0.0000000   0.0000000   0.0000000   0.0000000   0.0000000   0.0000000
 NMagM=    2.7928460   2.7928460   2.7928460   2.7928460   2.7928460   2.7928460   2.7928460   2.7928460   2.7928460   2.7928460
 AtZNuc=   1.0000000   1.0000000   1.0000000   1.0000000   1.0000000   1.0000000   1.0000000   1.0000000   1.0000000   1.0000000

  Atom        81          82          83          84
 IAtWgt=           1           1           1           1
 AtmWgt=   1.0078250   1.0078250   1.0078250   1.0078250
 NucSpn=           1           1           1           1
 AtZEff=   0.0000000   0.0000000   0.0000000   0.0000000
 NQMom=    0.0000000   0.0000000   0.0000000   0.0000000
 NMagM=    2.7928460   2.7928460   2.7928460   2.7928460
 AtZNuc=   1.0000000   1.0000000   1.0000000   1.0000000
 Leave Link  101 at Tue Mar 22 19:49:47 2016, MaxMem= 10737418240 cpu:         6.4
 (Enter /share/apps//g09/l103.exe)

 GradGradGradGradGradGradGradGradGradGradGradGradGradGradGradGradGradGrad
 Berny optimization.
 Initialization pass.
                           ----------------------------
                           !    Initial Parameters    !
                           ! (Angstroms and Degrees)  !
 --------------------------                            --------------------------
 ! Name  Definition              Value          Derivative Info.                !
 --------------------------------------------------------------------------------
 ! R1    R(1,2)                  1.442          estimate D2E/DX2                !
 ! R2    R(1,6)                  1.4371         estimate D2E/DX2                !
 ! R3    R(2,3)                  1.5322         estimate D2E/DX2                !
 ! R4    R(2,12)                 1.393          estimate D2E/DX2                !
 ! R5    R(2,41)                 1.1082         estimate D2E/DX2                !
 ! R6    R(3,4)                  1.5263         estimate D2E/DX2                !
 ! R7    R(3,11)                 1.4172         estimate D2E/DX2                !
 ! R8    R(3,42)                 1.1083         estimate D2E/DX2                !
 ! R9    R(4,5)                  1.533          estimate D2E/DX2                !
 ! R10   R(4,10)                 1.4304         estimate D2E/DX2                !
 ! R11   R(4,43)                 1.1065         estimate D2E/DX2                !
 ! R12   R(5,6)                  1.5293         estimate D2E/DX2                !
 ! R13   R(5,9)                  1.4409         estimate D2E/DX2                !
 ! R14   R(5,44)                 1.1057         estimate D2E/DX2                !
 ! R15   R(6,7)                  1.5395         estimate D2E/DX2                !
 ! R16   R(6,45)                 1.1095         estimate D2E/DX2                !
 ! R17   R(7,8)                  1.4282         estimate D2E/DX2                !
 ! R18   R(7,46)                 1.1002         estimate D2E/DX2                !
 ! R19   R(7,47)                 1.101          estimate D2E/DX2                !
 ! R20   R(8,48)                 0.9732         estimate D2E/DX2                !
 ! R21   R(9,49)                 0.9807         estimate D2E/DX2                !
 ! R22   R(10,50)                0.9755         estimate D2E/DX2                !
 ! R23   R(11,51)                0.9861         estimate D2E/DX2                !
 ! R24   R(12,13)                1.4393         estimate D2E/DX2                !
 ! R25   R(13,14)                1.5268         estimate D2E/DX2                !
 ! R26   R(13,19)                1.5391         estimate D2E/DX2                !
 ! R27   R(13,52)                1.1033         estimate D2E/DX2                !
 ! R28   R(14,15)                1.4345         estimate D2E/DX2                !
 ! R29   R(14,16)                1.525          estimate D2E/DX2                !
 ! R30   R(14,53)                1.1059         estimate D2E/DX2                !
 ! R31   R(15,54)                0.9778         estimate D2E/DX2                !
 ! R32   R(16,17)                1.5453         estimate D2E/DX2                !
 ! R33   R(16,40)                1.4204         estimate D2E/DX2                !
 ! R34   R(16,55)                1.0996         estimate D2E/DX2                !
 ! R35   R(17,18)                1.4384         estimate D2E/DX2                !
 ! R36   R(17,22)                1.4106         estimate D2E/DX2                !
 ! R37   R(17,56)                1.1048         estimate D2E/DX2                !
 ! R38   R(18,19)                1.4283         estimate D2E/DX2                !
 ! R39   R(19,20)                1.5348         estimate D2E/DX2                !
 ! R40   R(19,57)                1.1109         estimate D2E/DX2                !
 ! R41   R(20,21)                1.4319         estimate D2E/DX2                !
 ! R42   R(20,58)                1.0982         estimate D2E/DX2                !
 ! R43   R(20,59)                1.104          estimate D2E/DX2                !
 ! R44   R(21,60)                0.9881         estimate D2E/DX2                !
 ! R45   R(22,23)                1.4397         estimate D2E/DX2                !
 ! R46   R(23,24)                1.5332         estimate D2E/DX2                !
 ! R47   R(23,28)                1.5432         estimate D2E/DX2                !
 ! R48   R(23,61)                1.102          estimate D2E/DX2                !
 ! R49   R(24,25)                1.5281         estimate D2E/DX2                !
 ! R50   R(24,39)                1.4336         estimate D2E/DX2                !
 ! R51   R(24,62)                1.1075         estimate D2E/DX2                !
 ! R52   R(25,26)                1.5295         estimate D2E/DX2                !
 ! R53   R(25,38)                1.4256         estimate D2E/DX2                !
 ! R54   R(25,63)                1.1083         estimate D2E/DX2                !
 ! R55   R(26,27)                1.4313         estimate D2E/DX2                !
 ! R56   R(26,31)                1.4011         estimate D2E/DX2                !
 ! R57   R(26,64)                1.1089         estimate D2E/DX2                !
 ! R58   R(27,28)                1.4406         estimate D2E/DX2                !
 ! R59   R(28,29)                1.529          estimate D2E/DX2                !
 ! R60   R(28,65)                1.1081         estimate D2E/DX2                !
 ! R61   R(29,30)                1.431          estimate D2E/DX2                !
 ! R62   R(29,66)                1.1015         estimate D2E/DX2                !
 ! R63   R(29,67)                1.0977         estimate D2E/DX2                !
 ! R64   R(30,68)                0.9963         estimate D2E/DX2                !
 ! R65   R(31,32)                1.4612         estimate D2E/DX2                !
 ! R66   R(32,33)                1.5256         estimate D2E/DX2                !
 ! R67   R(32,69)                1.1019         estimate D2E/DX2                !
 ! R68   R(32,70)                1.1001         estimate D2E/DX2                !
 ! R69   R(33,34)                1.5441         estimate D2E/DX2                !
 ! R70   R(33,71)                1.1011         estimate D2E/DX2                !
 ! R71   R(33,72)                1.1026         estimate D2E/DX2                !
 ! R72   R(34,35)                1.5374         estimate D2E/DX2                !
 ! R73   R(34,73)                1.0989         estimate D2E/DX2                !
 ! R74   R(34,74)                1.1001         estimate D2E/DX2                !
 ! R75   R(35,36)                1.529          estimate D2E/DX2                !
 ! R76   R(35,75)                1.1016         estimate D2E/DX2                !
 ! R77   R(35,76)                1.1021         estimate D2E/DX2                !
 ! R78   R(36,37)                1.5034         estimate D2E/DX2                !
 ! R79   R(36,77)                1.0986         estimate D2E/DX2                !
 ! R80   R(36,78)                1.0962         estimate D2E/DX2                !
 ! R81   R(37,79)                1.0583         estimate D2E/DX2                !
 ! R82   R(37,80)                1.044          estimate D2E/DX2                !
 ! R83   R(37,81)                1.0322         estimate D2E/DX2                !
 ! R84   R(38,82)                0.9736         estimate D2E/DX2                !
 ! R85   R(39,83)                0.9763         estimate D2E/DX2                !
 ! R86   R(40,84)                0.9809         estimate D2E/DX2                !
 ! A1    A(2,1,6)              117.3611         estimate D2E/DX2                !
 ! A2    A(1,2,3)              112.2987         estimate D2E/DX2                !
 ! A3    A(1,2,12)             104.6076         estimate D2E/DX2                !
 ! A4    A(1,2,41)             110.133          estimate D2E/DX2                !
 ! A5    A(3,2,12)             106.2652         estimate D2E/DX2                !
 ! A6    A(3,2,41)             111.286          estimate D2E/DX2                !
 ! A7    A(12,2,41)            112.0287         estimate D2E/DX2                !
 ! A8    A(2,3,4)              112.4151         estimate D2E/DX2                !
 ! A9    A(2,3,11)             110.9971         estimate D2E/DX2                !
 ! A10   A(2,3,42)             105.826          estimate D2E/DX2                !
 ! A11   A(4,3,11)             107.7543         estimate D2E/DX2                !
 ! A12   A(4,3,42)             108.4813         estimate D2E/DX2                !
 ! A13   A(11,3,42)            111.3816         estimate D2E/DX2                !
 ! A14   A(3,4,5)              110.8549         estimate D2E/DX2                !
 ! A15   A(3,4,10)             111.128          estimate D2E/DX2                !
 ! A16   A(3,4,43)             109.1309         estimate D2E/DX2                !
 ! A17   A(5,4,10)             106.2146         estimate D2E/DX2                !
 ! A18   A(5,4,43)             109.1797         estimate D2E/DX2                !
 ! A19   A(10,4,43)            110.2914         estimate D2E/DX2                !
 ! A20   A(4,5,6)              109.7624         estimate D2E/DX2                !
 ! A21   A(4,5,9)              109.5663         estimate D2E/DX2                !
 ! A22   A(4,5,44)             108.4993         estimate D2E/DX2                !
 ! A23   A(6,5,9)              112.7214         estimate D2E/DX2                !
 ! A24   A(6,5,44)             107.4208         estimate D2E/DX2                !
 ! A25   A(9,5,44)             108.7607         estimate D2E/DX2                !
 ! A26   A(1,6,5)              112.0412         estimate D2E/DX2                !
 ! A27   A(1,6,7)              106.4859         estimate D2E/DX2                !
 ! A28   A(1,6,45)             109.684          estimate D2E/DX2                !
 ! A29   A(5,6,7)              116.636          estimate D2E/DX2                !
 ! A30   A(5,6,45)             105.408          estimate D2E/DX2                !
 ! A31   A(7,6,45)             106.3424         estimate D2E/DX2                !
 ! A32   A(6,7,8)              114.1326         estimate D2E/DX2                !
 ! A33   A(6,7,46)             108.5715         estimate D2E/DX2                !
 ! A34   A(6,7,47)             108.3694         estimate D2E/DX2                !
 ! A35   A(8,7,46)             107.5732         estimate D2E/DX2                !
 ! A36   A(8,7,47)             110.3589         estimate D2E/DX2                !
 ! A37   A(46,7,47)            107.6322         estimate D2E/DX2                !
 ! A38   A(7,8,48)             107.9499         estimate D2E/DX2                !
 ! A39   A(5,9,49)             103.638          estimate D2E/DX2                !
 ! A40   A(4,10,50)            107.388          estimate D2E/DX2                !
 ! A41   A(3,11,51)            108.8761         estimate D2E/DX2                !
 ! A42   A(2,12,13)            121.2192         estimate D2E/DX2                !
 ! A43   A(12,13,14)           106.8302         estimate D2E/DX2                !
 ! A44   A(12,13,19)           109.2133         estimate D2E/DX2                !
 ! A45   A(12,13,52)           110.6832         estimate D2E/DX2                !
 ! A46   A(14,13,19)           108.351          estimate D2E/DX2                !
 ! A47   A(14,13,52)           110.7379         estimate D2E/DX2                !
 ! A48   A(19,13,52)           110.9059         estimate D2E/DX2                !
 ! A49   A(13,14,15)           109.1706         estimate D2E/DX2                !
 ! A50   A(13,14,16)           108.2795         estimate D2E/DX2                !
 ! A51   A(13,14,53)           109.185          estimate D2E/DX2                !
 ! A52   A(15,14,16)           110.0649         estimate D2E/DX2                !
 ! A53   A(15,14,53)           109.5638         estimate D2E/DX2                !
 ! A54   A(16,14,53)           110.5462         estimate D2E/DX2                !
 ! A55   A(14,15,54)           105.5139         estimate D2E/DX2                !
 ! A56   A(14,16,17)           112.8956         estimate D2E/DX2                !
 ! A57   A(14,16,40)           108.2909         estimate D2E/DX2                !
 ! A58   A(14,16,55)           105.9781         estimate D2E/DX2                !
 ! A59   A(17,16,40)           111.0081         estimate D2E/DX2                !
 ! A60   A(17,16,55)           108.6811         estimate D2E/DX2                !
 ! A61   A(40,16,55)           109.8485         estimate D2E/DX2                !
 ! A62   A(16,17,18)           112.9505         estimate D2E/DX2                !
 ! A63   A(16,17,22)           112.5815         estimate D2E/DX2                !
 ! A64   A(16,17,56)           109.479          estimate D2E/DX2                !
 ! A65   A(18,17,22)           106.586          estimate D2E/DX2                !
 ! A66   A(18,17,56)           110.445          estimate D2E/DX2                !
 ! A67   A(22,17,56)           104.4442         estimate D2E/DX2                !
 ! A68   A(17,18,19)           116.7865         estimate D2E/DX2                !
 ! A69   A(13,19,18)           110.6168         estimate D2E/DX2                !
 ! A70   A(13,19,20)           115.7112         estimate D2E/DX2                !
 ! A71   A(13,19,57)           107.0785         estimate D2E/DX2                !
 ! A72   A(18,19,20)           106.6008         estimate D2E/DX2                !
 ! A73   A(18,19,57)           110.7143         estimate D2E/DX2                !
 ! A74   A(20,19,57)           106.0341         estimate D2E/DX2                !
 ! A75   A(19,20,21)           114.894          estimate D2E/DX2                !
 ! A76   A(19,20,58)           108.3264         estimate D2E/DX2                !
 ! A77   A(19,20,59)           108.9699         estimate D2E/DX2                !
 ! A78   A(21,20,58)           105.9503         estimate D2E/DX2                !
 ! A79   A(21,20,59)           110.6374         estimate D2E/DX2                !
 ! A80   A(58,20,59)           107.7821         estimate D2E/DX2                !
 ! A81   A(20,21,60)           108.5106         estimate D2E/DX2                !
 ! A82   A(17,22,23)           116.1031         estimate D2E/DX2                !
 ! A83   A(22,23,24)           109.3716         estimate D2E/DX2                !
 ! A84   A(22,23,28)           108.9601         estimate D2E/DX2                !
 ! A85   A(22,23,61)           110.9478         estimate D2E/DX2                !
 ! A86   A(24,23,28)           108.4414         estimate D2E/DX2                !
 ! A87   A(24,23,61)           110.8227         estimate D2E/DX2                !
 ! A88   A(28,23,61)           108.2354         estimate D2E/DX2                !
 ! A89   A(23,24,25)           110.4337         estimate D2E/DX2                !
 ! A90   A(23,24,39)           110.5856         estimate D2E/DX2                !
 ! A91   A(23,24,62)           108.147          estimate D2E/DX2                !
 ! A92   A(25,24,39)           109.252          estimate D2E/DX2                !
 ! A93   A(25,24,62)           109.1945         estimate D2E/DX2                !
 ! A94   A(39,24,62)           109.1978         estimate D2E/DX2                !
 ! A95   A(24,25,26)           111.1959         estimate D2E/DX2                !
 ! A96   A(24,25,38)           106.4363         estimate D2E/DX2                !
 ! A97   A(24,25,63)           108.4752         estimate D2E/DX2                !
 ! A98   A(26,25,38)           112.2852         estimate D2E/DX2                !
 ! A99   A(26,25,63)           107.5579         estimate D2E/DX2                !
 ! A100  A(38,25,63)           110.8604         estimate D2E/DX2                !
 ! A101  A(25,26,27)           109.8417         estimate D2E/DX2                !
 ! A102  A(25,26,31)           107.5376         estimate D2E/DX2                !
 ! A103  A(25,26,64)           110.8878         estimate D2E/DX2                !
 ! A104  A(27,26,31)           106.6973         estimate D2E/DX2                !
 ! A105  A(27,26,64)           110.4664         estimate D2E/DX2                !
 ! A106  A(31,26,64)           111.2815         estimate D2E/DX2                !
 ! A107  A(26,27,28)           116.8723         estimate D2E/DX2                !
 ! A108  A(23,28,27)           109.6332         estimate D2E/DX2                !
 ! A109  A(23,28,29)           115.7268         estimate D2E/DX2                !
 ! A110  A(23,28,65)           108.4302         estimate D2E/DX2                !
 ! A111  A(27,28,29)           105.1547         estimate D2E/DX2                !
 ! A112  A(27,28,65)           110.3326         estimate D2E/DX2                !
 ! A113  A(29,28,65)           107.4823         estimate D2E/DX2                !
 ! A114  A(28,29,30)           112.4928         estimate D2E/DX2                !
 ! A115  A(28,29,66)           107.6819         estimate D2E/DX2                !
 ! A116  A(28,29,67)           109.1215         estimate D2E/DX2                !
 ! A117  A(30,29,66)           108.0499         estimate D2E/DX2                !
 ! A118  A(30,29,67)           110.7169         estimate D2E/DX2                !
 ! A119  A(66,29,67)           108.6582         estimate D2E/DX2                !
 ! A120  A(29,30,68)           110.9589         estimate D2E/DX2                !
 ! A121  A(26,31,32)           117.1869         estimate D2E/DX2                !
 ! A122  A(31,32,33)           110.933          estimate D2E/DX2                !
 ! A123  A(31,32,69)           109.231          estimate D2E/DX2                !
 ! A124  A(31,32,70)           106.0873         estimate D2E/DX2                !
 ! A125  A(33,32,69)           111.4731         estimate D2E/DX2                !
 ! A126  A(33,32,70)           110.6239         estimate D2E/DX2                !
 ! A127  A(69,32,70)           108.3126         estimate D2E/DX2                !
 ! A128  A(32,33,34)           113.9649         estimate D2E/DX2                !
 ! A129  A(32,33,71)           107.8868         estimate D2E/DX2                !
 ! A130  A(32,33,72)           107.1809         estimate D2E/DX2                !
 ! A131  A(34,33,71)           110.3767         estimate D2E/DX2                !
 ! A132  A(34,33,72)           111.9586         estimate D2E/DX2                !
 ! A133  A(71,33,72)           104.9908         estimate D2E/DX2                !
 ! A134  A(33,34,35)           116.3346         estimate D2E/DX2                !
 ! A135  A(33,34,73)           109.1369         estimate D2E/DX2                !
 ! A136  A(33,34,74)           109.1858         estimate D2E/DX2                !
 ! A137  A(35,34,73)           108.3898         estimate D2E/DX2                !
 ! A138  A(35,34,74)           107.8993         estimate D2E/DX2                !
 ! A139  A(73,34,74)           105.3334         estimate D2E/DX2                !
 ! A140  A(34,35,36)           116.3001         estimate D2E/DX2                !
 ! A141  A(34,35,75)           108.3404         estimate D2E/DX2                !
 ! A142  A(34,35,76)           110.6699         estimate D2E/DX2                !
 ! A143  A(36,35,75)           108.9336         estimate D2E/DX2                !
 ! A144  A(36,35,76)           106.1775         estimate D2E/DX2                !
 ! A145  A(75,35,76)           105.9273         estimate D2E/DX2                !
 ! A146  A(35,36,37)           113.8443         estimate D2E/DX2                !
 ! A147  A(35,36,77)           111.8885         estimate D2E/DX2                !
 ! A148  A(35,36,78)           110.8526         estimate D2E/DX2                !
 ! A149  A(37,36,77)           106.1728         estimate D2E/DX2                !
 ! A150  A(37,36,78)           106.0479         estimate D2E/DX2                !
 ! A151  A(77,36,78)           107.636          estimate D2E/DX2                !
 ! A152  A(36,37,79)           114.9345         estimate D2E/DX2                !
 ! A153  A(36,37,80)           108.7415         estimate D2E/DX2                !
 ! A154  A(36,37,81)           111.3046         estimate D2E/DX2                !
 ! A155  A(79,37,80)           108.013          estimate D2E/DX2                !
 ! A156  A(79,37,81)           104.0578         estimate D2E/DX2                !
 ! A157  A(80,37,81)           109.6168         estimate D2E/DX2                !
 ! A158  A(25,38,82)           108.2435         estimate D2E/DX2                !
 ! A159  A(24,39,83)           105.8119         estimate D2E/DX2                !
 ! A160  A(16,40,84)           105.0694         estimate D2E/DX2                !
 ! D1    D(6,1,2,3)            -48.8127         estimate D2E/DX2                !
 ! D2    D(6,1,2,12)          -163.6293         estimate D2E/DX2                !
 ! D3    D(6,1,2,41)            75.8154         estimate D2E/DX2                !
 ! D4    D(2,1,6,5)             52.941          estimate D2E/DX2                !
 ! D5    D(2,1,6,7)           -178.4338         estimate D2E/DX2                !
 ! D6    D(2,1,6,45)           -63.7554         estimate D2E/DX2                !
 ! D7    D(1,2,3,4)             47.3903         estimate D2E/DX2                !
 ! D8    D(1,2,3,11)           168.1627         estimate D2E/DX2                !
 ! D9    D(1,2,3,42)           -70.8607         estimate D2E/DX2                !
 ! D10   D(12,2,3,4)           161.1936         estimate D2E/DX2                !
 ! D11   D(12,2,3,11)          -78.034          estimate D2E/DX2                !
 ! D12   D(12,2,3,42)           42.9427         estimate D2E/DX2                !
 ! D13   D(41,2,3,4)           -76.5989         estimate D2E/DX2                !
 ! D14   D(41,2,3,11)           44.1735         estimate D2E/DX2                !
 ! D15   D(41,2,3,42)          165.1501         estimate D2E/DX2                !
 ! D16   D(1,2,12,13)         -106.9563         estimate D2E/DX2                !
 ! D17   D(3,2,12,13)          134.0642         estimate D2E/DX2                !
 ! D18   D(41,2,12,13)          12.3292         estimate D2E/DX2                !
 ! D19   D(2,3,4,5)            -51.9008         estimate D2E/DX2                !
 ! D20   D(2,3,4,10)          -169.777          estimate D2E/DX2                !
 ! D21   D(2,3,4,43)            68.3819         estimate D2E/DX2                !
 ! D22   D(11,3,4,5)          -174.5203         estimate D2E/DX2                !
 ! D23   D(11,3,4,10)           67.6035         estimate D2E/DX2                !
 ! D24   D(11,3,4,43)          -54.2377         estimate D2E/DX2                !
 ! D25   D(42,3,4,5)            64.773          estimate D2E/DX2                !
 ! D26   D(42,3,4,10)          -53.1031         estimate D2E/DX2                !
 ! D27   D(42,3,4,43)         -174.9443         estimate D2E/DX2                !
 ! D28   D(2,3,11,51)           45.7672         estimate D2E/DX2                !
 ! D29   D(4,3,11,51)          169.2542         estimate D2E/DX2                !
 ! D30   D(42,3,11,51)         -71.8768         estimate D2E/DX2                !
 ! D31   D(3,4,5,6)             54.6827         estimate D2E/DX2                !
 ! D32   D(3,4,5,9)            -69.5996         estimate D2E/DX2                !
 ! D33   D(3,4,5,44)           171.7905         estimate D2E/DX2                !
 ! D34   D(10,4,5,6)           175.5123         estimate D2E/DX2                !
 ! D35   D(10,4,5,9)            51.23           estimate D2E/DX2                !
 ! D36   D(10,4,5,44)          -67.3799         estimate D2E/DX2                !
 ! D37   D(43,4,5,6)           -65.5709         estimate D2E/DX2                !
 ! D38   D(43,4,5,9)           170.1467         estimate D2E/DX2                !
 ! D39   D(43,4,5,44)           51.5369         estimate D2E/DX2                !
 ! D40   D(3,4,10,50)          -50.2731         estimate D2E/DX2                !
 ! D41   D(5,4,10,50)         -170.9265         estimate D2E/DX2                !
 ! D42   D(43,4,10,50)          70.8897         estimate D2E/DX2                !
 ! D43   D(4,5,6,1)            -54.2829         estimate D2E/DX2                !
 ! D44   D(4,5,6,7)           -177.346          estimate D2E/DX2                !
 ! D45   D(4,5,6,45)            64.9603         estimate D2E/DX2                !
 ! D46   D(9,5,6,1)             68.1454         estimate D2E/DX2                !
 ! D47   D(9,5,6,7)            -54.9177         estimate D2E/DX2                !
 ! D48   D(9,5,6,45)          -172.6114         estimate D2E/DX2                !
 ! D49   D(44,5,6,1)          -172.0639         estimate D2E/DX2                !
 ! D50   D(44,5,6,7)            64.873          estimate D2E/DX2                !
 ! D51   D(44,5,6,45)          -52.8208         estimate D2E/DX2                !
 ! D52   D(4,5,9,49)           -41.8147         estimate D2E/DX2                !
 ! D53   D(6,5,9,49)          -164.353          estimate D2E/DX2                !
 ! D54   D(44,5,9,49)           76.633          estimate D2E/DX2                !
 ! D55   D(1,6,7,8)            -48.6613         estimate D2E/DX2                !
 ! D56   D(1,6,7,46)          -168.6307         estimate D2E/DX2                !
 ! D57   D(1,6,7,47)            74.7366         estimate D2E/DX2                !
 ! D58   D(5,6,7,8)             77.2306         estimate D2E/DX2                !
 ! D59   D(5,6,7,46)           -42.7387         estimate D2E/DX2                !
 ! D60   D(5,6,7,47)          -159.3714         estimate D2E/DX2                !
 ! D61   D(45,6,7,8)          -165.5876         estimate D2E/DX2                !
 ! D62   D(45,6,7,46)           74.4431         estimate D2E/DX2                !
 ! D63   D(45,6,7,47)          -42.1896         estimate D2E/DX2                !
 ! D64   D(6,7,8,48)            91.9907         estimate D2E/DX2                !
 ! D65   D(46,7,8,48)         -147.4814         estimate D2E/DX2                !
 ! D66   D(47,7,8,48)          -30.3246         estimate D2E/DX2                !
 ! D67   D(2,12,13,14)        -118.6117         estimate D2E/DX2                !
 ! D68   D(2,12,13,19)         124.404          estimate D2E/DX2                !
 ! D69   D(2,12,13,52)           2.0272         estimate D2E/DX2                !
 ! D70   D(12,13,14,15)         62.7172         estimate D2E/DX2                !
 ! D71   D(12,13,14,16)        -57.1089         estimate D2E/DX2                !
 ! D72   D(12,13,14,53)       -177.5253         estimate D2E/DX2                !
 ! D73   D(19,13,14,15)       -179.7295         estimate D2E/DX2                !
 ! D74   D(19,13,14,16)         60.4443         estimate D2E/DX2                !
 ! D75   D(19,13,14,53)        -59.9721         estimate D2E/DX2                !
 ! D76   D(52,13,14,15)        -57.8868         estimate D2E/DX2                !
 ! D77   D(52,13,14,16)       -177.7129         estimate D2E/DX2                !
 ! D78   D(52,13,14,53)         61.8707         estimate D2E/DX2                !
 ! D79   D(12,13,19,18)         54.8392         estimate D2E/DX2                !
 ! D80   D(12,13,19,20)        -66.4892         estimate D2E/DX2                !
 ! D81   D(12,13,19,57)        175.5649         estimate D2E/DX2                !
 ! D82   D(14,13,19,18)        -61.178          estimate D2E/DX2                !
 ! D83   D(14,13,19,20)        177.4936         estimate D2E/DX2                !
 ! D84   D(14,13,19,57)         59.5477         estimate D2E/DX2                !
 ! D85   D(52,13,19,18)        177.0823         estimate D2E/DX2                !
 ! D86   D(52,13,19,20)         55.7539         estimate D2E/DX2                !
 ! D87   D(52,13,19,57)        -62.192          estimate D2E/DX2                !
 ! D88   D(13,14,15,54)       -171.2891         estimate D2E/DX2                !
 ! D89   D(16,14,15,54)        -52.5705         estimate D2E/DX2                !
 ! D90   D(53,14,15,54)         69.1876         estimate D2E/DX2                !
 ! D91   D(13,14,16,17)        -53.2103         estimate D2E/DX2                !
 ! D92   D(13,14,16,40)       -176.5406         estimate D2E/DX2                !
 ! D93   D(13,14,16,55)         65.6444         estimate D2E/DX2                !
 ! D94   D(15,14,16,17)       -172.4741         estimate D2E/DX2                !
 ! D95   D(15,14,16,40)         64.1956         estimate D2E/DX2                !
 ! D96   D(15,14,16,55)        -53.6194         estimate D2E/DX2                !
 ! D97   D(53,14,16,17)         66.3539         estimate D2E/DX2                !
 ! D98   D(53,14,16,40)        -56.9764         estimate D2E/DX2                !
 ! D99   D(53,14,16,55)       -174.7914         estimate D2E/DX2                !
 ! D100  D(14,16,17,18)         44.9982         estimate D2E/DX2                !
 ! D101  D(14,16,17,22)        165.7846         estimate D2E/DX2                !
 ! D102  D(14,16,17,56)        -78.516          estimate D2E/DX2                !
 ! D103  D(40,16,17,18)        166.8095         estimate D2E/DX2                !
 ! D104  D(40,16,17,22)        -72.404          estimate D2E/DX2                !
 ! D105  D(40,16,17,56)         43.2953         estimate D2E/DX2                !
 ! D106  D(55,16,17,18)        -72.2744         estimate D2E/DX2                !
 ! D107  D(55,16,17,22)         48.5121         estimate D2E/DX2                !
 ! D108  D(55,16,17,56)        164.2114         estimate D2E/DX2                !
 ! D109  D(14,16,40,84)       -153.0453         estimate D2E/DX2                !
 ! D110  D(17,16,40,84)         82.4922         estimate D2E/DX2                !
 ! D111  D(55,16,40,84)        -37.7331         estimate D2E/DX2                !
 ! D112  D(16,17,18,19)        -46.1184         estimate D2E/DX2                !
 ! D113  D(22,17,18,19)       -170.2597         estimate D2E/DX2                !
 ! D114  D(56,17,18,19)         76.8606         estimate D2E/DX2                !
 ! D115  D(16,17,22,23)        -58.9017         estimate D2E/DX2                !
 ! D116  D(18,17,22,23)         65.467          estimate D2E/DX2                !
 ! D117  D(56,17,22,23)       -177.5911         estimate D2E/DX2                !
 ! D118  D(17,18,19,13)         54.7029         estimate D2E/DX2                !
 ! D119  D(17,18,19,20)       -178.7246         estimate D2E/DX2                !
 ! D120  D(17,18,19,57)        -63.8343         estimate D2E/DX2                !
 ! D121  D(13,19,20,21)         70.2336         estimate D2E/DX2                !
 ! D122  D(13,19,20,58)       -171.5471         estimate D2E/DX2                !
 ! D123  D(13,19,20,59)        -54.5434         estimate D2E/DX2                !
 ! D124  D(18,19,20,21)        -53.2267         estimate D2E/DX2                !
 ! D125  D(18,19,20,58)         64.9926         estimate D2E/DX2                !
 ! D126  D(18,19,20,59)       -178.0037         estimate D2E/DX2                !
 ! D127  D(57,19,20,21)       -171.2423         estimate D2E/DX2                !
 ! D128  D(57,19,20,58)        -53.023          estimate D2E/DX2                !
 ! D129  D(57,19,20,59)         63.9807         estimate D2E/DX2                !
 ! D130  D(19,20,21,60)        -64.4039         estimate D2E/DX2                !
 ! D131  D(58,20,21,60)        176.0484         estimate D2E/DX2                !
 ! D132  D(59,20,21,60)         59.4941         estimate D2E/DX2                !
 ! D133  D(17,22,23,24)        118.2556         estimate D2E/DX2                !
 ! D134  D(17,22,23,28)       -123.3625         estimate D2E/DX2                !
 ! D135  D(17,22,23,61)         -4.2972         estimate D2E/DX2                !
 ! D136  D(22,23,24,25)        175.3239         estimate D2E/DX2                !
 ! D137  D(22,23,24,39)        -63.6255         estimate D2E/DX2                !
 ! D138  D(22,23,24,62)         55.8958         estimate D2E/DX2                !
 ! D139  D(28,23,24,25)         56.6192         estimate D2E/DX2                !
 ! D140  D(28,23,24,39)        177.6698         estimate D2E/DX2                !
 ! D141  D(28,23,24,62)        -62.8089         estimate D2E/DX2                !
 ! D142  D(61,23,24,25)        -62.0487         estimate D2E/DX2                !
 ! D143  D(61,23,24,39)         59.0019         estimate D2E/DX2                !
 ! D144  D(61,23,24,62)        178.5233         estimate D2E/DX2                !
 ! D145  D(22,23,28,27)       -175.4064         estimate D2E/DX2                !
 ! D146  D(22,23,28,29)         65.9085         estimate D2E/DX2                !
 ! D147  D(22,23,28,65)        -54.8929         estimate D2E/DX2                !
 ! D148  D(24,23,28,27)        -56.4419         estimate D2E/DX2                !
 ! D149  D(24,23,28,29)       -175.127          estimate D2E/DX2                !
 ! D150  D(24,23,28,65)         64.0716         estimate D2E/DX2                !
 ! D151  D(61,23,28,27)         63.8495         estimate D2E/DX2                !
 ! D152  D(61,23,28,29)        -54.8355         estimate D2E/DX2                !
 ! D153  D(61,23,28,65)       -175.637          estimate D2E/DX2                !
 ! D154  D(23,24,25,26)        -55.2389         estimate D2E/DX2                !
 ! D155  D(23,24,25,38)       -177.818          estimate D2E/DX2                !
 ! D156  D(23,24,25,63)         62.8413         estimate D2E/DX2                !
 ! D157  D(39,24,25,26)       -177.0798         estimate D2E/DX2                !
 ! D158  D(39,24,25,38)         60.3412         estimate D2E/DX2                !
 ! D159  D(39,24,25,63)        -58.9996         estimate D2E/DX2                !
 ! D160  D(62,24,25,26)         63.5535         estimate D2E/DX2                !
 ! D161  D(62,24,25,38)        -59.0256         estimate D2E/DX2                !
 ! D162  D(62,24,25,63)       -178.3664         estimate D2E/DX2                !
 ! D163  D(23,24,39,83)       -171.3605         estimate D2E/DX2                !
 ! D164  D(25,24,39,83)        -49.6112         estimate D2E/DX2                !
 ! D165  D(62,24,39,83)         69.7535         estimate D2E/DX2                !
 ! D166  D(24,25,26,27)         52.2238         estimate D2E/DX2                !
 ! D167  D(24,25,26,31)        167.9691         estimate D2E/DX2                !
 ! D168  D(24,25,26,64)        -70.1593         estimate D2E/DX2                !
 ! D169  D(38,25,26,27)        171.3612         estimate D2E/DX2                !
 ! D170  D(38,25,26,31)        -72.8935         estimate D2E/DX2                !
 ! D171  D(38,25,26,64)         48.9781         estimate D2E/DX2                !
 ! D172  D(63,25,26,27)        -66.4091         estimate D2E/DX2                !
 ! D173  D(63,25,26,31)         49.3361         estimate D2E/DX2                !
 ! D174  D(63,25,26,64)        171.2077         estimate D2E/DX2                !
 ! D175  D(24,25,38,82)       -171.0835         estimate D2E/DX2                !
 ! D176  D(26,25,38,82)         67.0262         estimate D2E/DX2                !
 ! D177  D(63,25,38,82)        -53.3093         estimate D2E/DX2                !
 ! D178  D(25,26,27,28)        -55.862          estimate D2E/DX2                !
 ! D179  D(31,26,27,28)       -172.1376         estimate D2E/DX2                !
 ! D180  D(64,26,27,28)         66.7708         estimate D2E/DX2                !
 ! D181  D(25,26,31,32)        156.1337         estimate D2E/DX2                !
 ! D182  D(27,26,31,32)        -86.0634         estimate D2E/DX2                !
 ! D183  D(64,26,31,32)         34.5074         estimate D2E/DX2                !
 ! D184  D(26,27,28,23)         58.7201         estimate D2E/DX2                !
 ! D185  D(26,27,28,29)       -176.2433         estimate D2E/DX2                !
 ! D186  D(26,27,28,65)        -60.631          estimate D2E/DX2                !
 ! D187  D(23,28,29,30)         69.0573         estimate D2E/DX2                !
 ! D188  D(23,28,29,66)       -171.9967         estimate D2E/DX2                !
 ! D189  D(23,28,29,67)        -54.2269         estimate D2E/DX2                !
 ! D190  D(27,28,29,30)        -52.068          estimate D2E/DX2                !
 ! D191  D(27,28,29,66)         66.8781         estimate D2E/DX2                !
 ! D192  D(27,28,29,67)       -175.3522         estimate D2E/DX2                !
 ! D193  D(65,28,29,30)       -169.6311         estimate D2E/DX2                !
 ! D194  D(65,28,29,66)        -50.6851         estimate D2E/DX2                !
 ! D195  D(65,28,29,67)         67.0847         estimate D2E/DX2                !
 ! D196  D(28,29,30,68)       -112.5685         estimate D2E/DX2                !
 ! D197  D(66,29,30,68)        128.7008         estimate D2E/DX2                !
 ! D198  D(67,29,30,68)          9.8198         estimate D2E/DX2                !
 ! D199  D(26,31,32,33)        117.2257         estimate D2E/DX2                !
 ! D200  D(26,31,32,69)         -6.0409         estimate D2E/DX2                !
 ! D201  D(26,31,32,70)       -122.5882         estimate D2E/DX2                !
 ! D202  D(31,32,33,34)        -74.772          estimate D2E/DX2                !
 ! D203  D(31,32,33,71)        162.2822         estimate D2E/DX2                !
 ! D204  D(31,32,33,72)         49.6829         estimate D2E/DX2                !
 ! D205  D(69,32,33,34)         47.1948         estimate D2E/DX2                !
 ! D206  D(69,32,33,71)        -75.751          estimate D2E/DX2                !
 ! D207  D(69,32,33,72)        171.6498         estimate D2E/DX2                !
 ! D208  D(70,32,33,34)        167.7788         estimate D2E/DX2                !
 ! D209  D(70,32,33,71)         44.833          estimate D2E/DX2                !
 ! D210  D(70,32,33,72)        -67.7662         estimate D2E/DX2                !
 ! D211  D(32,33,34,35)        141.6193         estimate D2E/DX2                !
 ! D212  D(32,33,34,73)         18.6381         estimate D2E/DX2                !
 ! D213  D(32,33,34,74)        -96.014          estimate D2E/DX2                !
 ! D214  D(71,33,34,35)        -96.8034         estimate D2E/DX2                !
 ! D215  D(71,33,34,73)        140.2154         estimate D2E/DX2                !
 ! D216  D(71,33,34,74)         25.5634         estimate D2E/DX2                !
 ! D217  D(72,33,34,35)         19.7654         estimate D2E/DX2                !
 ! D218  D(72,33,34,73)       -103.2158         estimate D2E/DX2                !
 ! D219  D(72,33,34,74)        142.1322         estimate D2E/DX2                !
 ! D220  D(33,34,35,36)        -54.4982         estimate D2E/DX2                !
 ! D221  D(33,34,35,75)       -177.5329         estimate D2E/DX2                !
 ! D222  D(33,34,35,76)         66.7418         estimate D2E/DX2                !
 ! D223  D(73,34,35,36)         68.8712         estimate D2E/DX2                !
 ! D224  D(73,34,35,75)        -54.1634         estimate D2E/DX2                !
 ! D225  D(73,34,35,76)       -169.8888         estimate D2E/DX2                !
 ! D226  D(74,34,35,36)       -177.537          estimate D2E/DX2                !
 ! D227  D(74,34,35,75)         59.4283         estimate D2E/DX2                !
 ! D228  D(74,34,35,76)        -56.297          estimate D2E/DX2                !
 ! D229  D(34,35,36,37)        -48.6014         estimate D2E/DX2                !
 ! D230  D(34,35,36,77)         71.7801         estimate D2E/DX2                !
 ! D231  D(34,35,36,78)       -168.059          estimate D2E/DX2                !
 ! D232  D(75,35,36,37)         74.1237         estimate D2E/DX2                !
 ! D233  D(75,35,36,77)       -165.4947         estimate D2E/DX2                !
 ! D234  D(75,35,36,78)        -45.3338         estimate D2E/DX2                !
 ! D235  D(76,35,36,37)       -172.1987         estimate D2E/DX2                !
 ! D236  D(76,35,36,77)        -51.8171         estimate D2E/DX2                !
 ! D237  D(76,35,36,78)         68.3438         estimate D2E/DX2                !
 ! D238  D(35,36,37,79)        -50.5159         estimate D2E/DX2                !
 ! D239  D(35,36,37,80)       -171.7043         estimate D2E/DX2                !
 ! D240  D(35,36,37,81)         67.4421         estimate D2E/DX2                !
 ! D241  D(77,36,37,79)       -174.059          estimate D2E/DX2                !
 ! D242  D(77,36,37,80)         64.7526         estimate D2E/DX2                !
 ! D243  D(77,36,37,81)        -56.1009         estimate D2E/DX2                !
 ! D244  D(78,36,37,79)         71.6315         estimate D2E/DX2                !
 ! D245  D(78,36,37,80)        -49.557          estimate D2E/DX2                !
 ! D246  D(78,36,37,81)       -170.4105         estimate D2E/DX2                !
 --------------------------------------------------------------------------------
 Trust Radius=3.00D-01 FncErr=1.00D-07 GrdErr=1.00D-06
 Number of steps in this run=    504 maximum allowed number of steps=    504.
 GradGradGradGradGradGradGradGradGradGradGradGradGradGradGradGradGradGrad

 Leave Link  103 at Tue Mar 22 19:49:48 2016, MaxMem= 10737418240 cpu:         0.4
 (Enter /share/apps//g09/l202.exe)
 Stoichiometry    C23H44NO16(1+)
 Framework group  C1[X(C23H44NO16)]
 Deg. of freedom   246
 Full point group                 C1      NOp   1
 Largest Abelian subgroup         C1      NOp   1
 Largest concise Abelian subgroup C1      NOp   1
                         Standard orientation:                         
 ---------------------------------------------------------------------
 Center     Atomic      Atomic             Coordinates (Angstroms)
 Number     Number       Type             X           Y           Z
 ---------------------------------------------------------------------
      1          8           0       -1.785920    2.408678   -0.424542
      2          6           0       -2.585904    1.557756    0.421158
      3          6           0       -2.057950    1.504778    1.858511
      4          6           0       -1.748227    2.891327    2.416227
      5          6           0       -0.838262    3.672803    1.461574
      6          6           0       -1.468906    3.720515    0.069140
      7          6           0       -0.652735    4.417249   -1.034669
      8          8           0        0.420486    3.629981   -1.552409
      9          8           0        0.476423    3.083186    1.457187
     10          8           0       -1.042539    2.802068    3.657201
     11          8           0       -2.998933    0.891587    2.722864
     12          8           0       -2.414982    0.279133   -0.104655
     13          6           0       -3.466714   -0.371408   -0.841018
     14          6           0       -3.827936   -1.638577   -0.069677
     15          8           0       -4.331166   -1.275445    1.223666
     16          6           0       -2.567607   -2.484350    0.077874
     17          6           0       -1.865579   -2.757585   -1.271341
     18          8           0       -1.761637   -1.584511   -2.097204
     19          6           0       -2.936086   -0.781980   -2.226175
     20          6           0       -2.576335    0.373121   -3.170585
     21          8           0       -1.411982    1.117591   -2.796017
     22          8           0       -0.554967   -3.253411   -1.109365
     23          6           0        0.355340   -2.410636   -0.378813
     24          6           0        0.824794   -3.143252    0.883557
     25          6           0        1.880709   -2.317996    1.617765
     26          6           0        3.049437   -1.968518    0.695082
     27          8           0        2.556665   -1.367359   -0.506694
     28          6           0        1.587517   -2.120054   -1.261300
     29          6           0        1.323630   -1.287245   -2.516178
     30          8           0        0.986096    0.069660   -2.211739
     31          8           0        3.823145   -0.996840    1.343303
     32          6           0        5.225947   -0.888225    0.949085
     33          6           0        5.516957    0.480542    0.341518
     34          6           0        4.973003    0.658648   -1.092565
     35          6           0        4.390221    2.039660   -1.434329
     36          6           0        3.290140    2.558814   -0.508051
     37          7           0        2.201006    1.558374   -0.237643
     38          8           0        2.291585   -3.095213    2.739954
     39          8           0       -0.279634   -3.388727    1.764018
     40          8           0       -2.919221   -3.699302    0.724158
     41          1           0       -3.645797    1.880308    0.393504
     42          1           0       -1.114078    0.925640    1.812670
     43          1           0       -2.695225    3.447269    2.552421
     44          1           0       -0.759821    4.713992    1.825296
     45          1           0       -2.401017    4.310521    0.187749
     46          1           0       -0.218516    5.339250   -0.620304
     47          1           0       -1.340405    4.706986   -1.844156
     48          1           0        0.086649    3.137121   -2.322304
     49          1           0        0.643186    2.882927    2.402598
     50          1           0       -1.537173    2.186851    4.230224
     51          1           0       -3.341303    0.073016    2.292537
     52          1           0       -4.343523    0.291454   -0.935953
     53          1           0       -4.605148   -2.194097   -0.626869
     54          1           0       -4.410243   -2.114978    1.718702
     55          1           0       -1.887069   -1.904359    0.717907
     56          1           0       -2.399976   -3.561623   -1.808524
     57          1           0       -3.746607   -1.349886   -2.730856
     58          1           0       -2.360310   -0.046210   -4.162368
     59          1           0       -3.449846    1.040861   -3.269831
     60          1           0       -1.590190    1.565768   -1.933602
     61          1           0       -0.118351   -1.449654   -0.120742
     62          1           0        1.267635   -4.110760    0.576322
     63          1           0        1.417186   -1.366089    1.945414
     64          1           0        3.650427   -2.870186    0.459404
     65          1           0        2.020185   -3.086494   -1.588047
     66          1           0        2.247944   -1.282837   -3.115276
     67          1           0        0.527216   -1.763270   -3.102750
     68          1           0        0.038883    0.263728   -2.451832
     69          1           0        5.469519   -1.701391    0.246581
     70          1           0        5.813085   -1.037322    1.867390
     71          1           0        6.607229    0.633815    0.359827
     72          1           0        5.110964    1.236951    1.033369
     73          1           0        4.200829   -0.099965   -1.281769
     74          1           0        5.775738    0.442672   -1.813133
     75          1           0        4.003579    2.007242   -2.465369
     76          1           0        5.181158    2.807088   -1.431932
     77          1           0        3.686190    2.852790    0.473560
     78          1           0        2.795499    3.435220   -0.942625
     79          1           0        1.786491    1.106064   -1.100008
     80          1           0        1.429270    2.034333    0.279875
     81          1           0        2.552137    0.762874    0.318515
     82          1           0        2.857223   -2.539511    3.304918
     83          1           0        0.110900   -3.724645    2.593408
     84          1           0       -2.101676   -3.991028    1.181013
 ---------------------------------------------------------------------
 Rotational constants (GHZ):      0.1034302      0.0863196      0.0682253
 Leave Link  202 at Tue Mar 22 19:49:48 2016, MaxMem= 10737418240 cpu:         0.4
 (Enter /share/apps//g09/l301.exe)
 Standard basis: 6-311+G(d,p) (5D, 7F)
 Ernie: Thresh=  0.10000D-02 Tol=  0.10000D-05 Strict=F.
 There are  1184 symmetry adapted cartesian basis functions of A   symmetry.
 There are  1144 symmetry adapted basis functions of A   symmetry.
  1144 basis functions,  1792 primitive gaussians,  1184 cartesian basis functions
   158 alpha electrons      158 beta electrons
       nuclear repulsion energy      6032.1818305469 Hartrees.
 IExCor= 1009 DFT=T Ex+Corr=PBE1PBE ExCW=0 ScaHFX=  0.250000
 ScaDFX=  0.750000  0.750000  1.000000  1.000000 ScalE2=  1.000000  1.000000
 IRadAn=      0 IRanWt=     -1 IRanGd=            0 ICorTp=0 IEmpDi=131
 NAtoms=   84 NActive=   84 NUniq=   84 SFac= 1.00D+00 NAtFMM=   60 NAOKFM=T Big=T
 Integral buffers will be    131072 words long.
 Raffenetti 2 integral format.
 Two-electron integral symmetry is turned on.
 R6Disp:  Grimme-D3 Dispersion energy=       -0.0861558029 Hartrees.
 Nuclear repulsion after empirical dispersion term =     6032.0956747440 Hartrees.
 Leave Link  301 at Tue Mar 22 19:49:48 2016, MaxMem= 10737418240 cpu:         1.6
 (Enter /share/apps//g09/l302.exe)
 NPDir=0 NMtPBC=     1 NCelOv=     1 NCel=       1 NClECP=     1 NCelD=      1
         NCelK=      1 NCelE2=     1 NClLst=     1 CellRange=     0.0.
 One-electron integrals computed using PRISM.
 NBasis=  1144 RedAO= T EigKep=  1.51D-06  NBF=  1144
 NBsUse=  1144 1.00D-06 EigRej= -1.00D+00 NBFU=  1144
 Precomputing XC quadrature grid using
 IXCGrd= 4 IRadAn=           0 IRanWt=          -1 IRanGd=           0 AccXCQ= 0.00D+00.
 Generated NRdTot=       0 NPtTot=           0 NUsed=           0 NTot=          32
 NSgBfM=  1079  1088  1088  1089  1089 MxSgAt=    84 MxSgA2=    84.
 Leave Link  302 at Tue Mar 22 19:49:52 2016, MaxMem= 10737418240 cpu:        55.4
 (Enter /share/apps//g09/l303.exe)
 DipDrv:  MaxL=1.
 Leave Link  303 at Tue Mar 22 19:49:54 2016, MaxMem= 10737418240 cpu:        28.2
 (Enter /share/apps//g09/l401.exe)
 ExpMin= 4.38D-02 ExpMax= 8.59D+03 ExpMxC= 1.30D+03 IAcc=2 IRadAn=         4 AccDes= 0.00D+00
 Harris functional with IExCor= 1009 and IRadAn=       4 diagonalized for initial guess.
 HarFok:  IExCor= 1009 AccDes= 0.00D+00 IRadAn=         4 IDoV= 1 UseB2=F ITyADJ=14
 ICtDFT=  3500011 ScaDFX=  1.000000  1.000000  1.000000  1.000000
 FoFCou: FMM=F IPFlag=           0 FMFlag=      100000 FMFlg1=        2001
         NFxFlg=           0 DoJE=T BraDBF=F KetDBF=T FulRan=T
         wScrn=  0.000000 ICntrl=     500 IOpCl=  0 I1Cent=   200000004 NGrid=           0
         NMat0=    1 NMatS0=      1 NMatT0=    0 NMatD0=    1 NMtDS0=    0 NMtDT0=    0
 Petite list used in FoFCou.
 Harris En= -2159.71912027138    
 JPrj=0 DoOrth=F DoCkMO=F.
 Leave Link  401 at Tue Mar 22 19:50:08 2016, MaxMem= 10737418240 cpu:       233.7
 (Enter /share/apps//g09/l502.exe)
 Closed shell SCF:
 Using DIIS extrapolation, IDIIS=  1040.
 Integral symmetry usage will be decided dynamically.
 IVT=     4256630 IEndB=     4256630 NGot= 10737418240 MDV= 10734581291
 LenX= 10734581291 LenY= 10733178251
 Requested convergence on RMS density matrix=1.00D-08 within 128 cycles.
 Requested convergence on MAX density matrix=1.00D-06.
 Requested convergence on             energy=1.00D-06.
 No special actions if energy rises.
 Fock matrices will be formed incrementally for  20 cycles.

 Cycle   1  Pass 1  IDiag  1:
 FoFJK:  IHMeth= 1 ICntrl=       0 DoSepK=F KAlg= 0 I1Cent=   0 FoldK=F
 IRaf= 790000000 NMat=   1 IRICut=       1 DoRegI=T DoRafI=F ISym2E= 0.
 FoFCou: FMM=T IPFlag=           0 FMFlag=      100000 FMFlg1=        2001
         NFxFlg=           0 DoJE=F BraDBF=F KetDBF=F FulRan=T
         wScrn=  0.000000 ICntrl=       0 IOpCl=  0 I1Cent=           0 NGrid=           0
         NMat0=    1 NMatS0=      1 NMatT0=    0 NMatD0=    1 NMtDS0=    0 NMtDT0=    0
 Symmetry not used in FoFCou.
 FMM levels:  10  Number of levels for PrismC:   9
 E= -2158.70962238456    
 DIIS: error= 1.44D-02 at cycle   1 NSaved=   1.
 NSaved= 1 IEnMin= 1 EnMin= -2158.70962238456     IErMin= 1 ErrMin= 1.44D-02
 ErrMax= 1.44D-02  0.00D+00 EMaxC= 1.00D-01 BMatC= 1.02D+00 BMatP= 1.02D+00
 IDIUse=3 WtCom= 8.56D-01 WtEn= 1.44D-01
 Coeff-Com:  0.100D+01
 Coeff-En:   0.100D+01
 Coeff:      0.100D+01
 Gap=     0.267 Goal=   None    Shift=    0.000
 GapD=    0.267 DampG=1.000 DampE=0.500 DampFc=0.5000 IDamp=-1.
 Damping current iteration by 5.00D-01
 RMSDP=9.44D-03 MaxDP=2.17D+00              OVMax= 1.36D-01

 Cycle   2  Pass 1  IDiag  1:
 RMSU=  4.72D-03    CP:  1.00D+00
 E= -2158.98990842429     Delta-E=       -0.280286039730 Rises=F Damp=T
 DIIS: error= 3.38D-03 at cycle   2 NSaved=   2.
 NSaved= 2 IEnMin= 2 EnMin= -2158.98990842429     IErMin= 2 ErrMin= 3.38D-03
 ErrMax= 3.38D-03  0.00D+00 EMaxC= 1.00D-01 BMatC= 8.15D-02 BMatP= 1.02D+00
 IDIUse=3 WtCom= 9.66D-01 WtEn= 3.38D-02
 Coeff-Com:  0.623D-01 0.938D+00
 Coeff-En:   0.161D+00 0.839D+00
 Coeff:      0.657D-01 0.934D+00
 Gap=     0.294 Goal=   None    Shift=    0.000
 RMSDP=4.71D-03 MaxDP=1.31D+00 DE=-2.80D-01 OVMax= 7.85D-02

 Cycle   3  Pass 1  IDiag  1:
 RMSU=  2.57D-03    CP:  9.05D-01  9.17D-01
 E= -2159.35855019639     Delta-E=       -0.368641772093 Rises=F Damp=F
 DIIS: error= 3.29D-03 at cycle   3 NSaved=   3.
 NSaved= 3 IEnMin= 3 EnMin= -2159.35855019639     IErMin= 3 ErrMin= 3.29D-03
 ErrMax= 3.29D-03  0.00D+00 EMaxC= 1.00D-01 BMatC= 4.53D-02 BMatP= 8.15D-02
 IDIUse=3 WtCom= 9.67D-01 WtEn= 3.29D-02
 Coeff-Com: -0.668D-01 0.409D+00 0.658D+00
 Coeff-En:   0.000D+00 0.000D+00 0.100D+01
 Coeff:     -0.646D-01 0.396D+00 0.669D+00
 Gap=     0.273 Goal=   None    Shift=    0.000
 RMSDP=1.59D-03 MaxDP=4.01D-01 DE=-3.69D-01 OVMax= 1.90D-02

 Cycle   4  Pass 1  IDiag  1:
 RMSU=  1.13D-03    CP:  9.26D-01  1.04D+00  8.46D-01
 E= -2159.38716558764     Delta-E=       -0.028615391259 Rises=F Damp=F
 DIIS: error= 1.19D-03 at cycle   4 NSaved=   4.
 NSaved= 4 IEnMin= 4 EnMin= -2159.38716558764     IErMin= 4 ErrMin= 1.19D-03
 ErrMax= 1.19D-03  0.00D+00 EMaxC= 1.00D-01 BMatC= 5.78D-03 BMatP= 4.53D-02
 IDIUse=3 WtCom= 9.88D-01 WtEn= 1.19D-02
 Coeff-Com: -0.356D-01 0.122D+00 0.338D+00 0.576D+00
 Coeff-En:   0.000D+00 0.000D+00 0.696D-01 0.930D+00
 Coeff:     -0.351D-01 0.121D+00 0.334D+00 0.580D+00
 Gap=     0.266 Goal=   None    Shift=    0.000
 RMSDP=1.08D-03 MaxDP=3.45D-01 DE=-2.86D-02 OVMax= 6.23D-03

 Cycle   5  Pass 1  IDiag  1:
 RMSU=  2.89D-04    CP:  9.03D-01  1.01D+00  8.67D-01  5.77D-01
 E= -2159.39212198444     Delta-E=       -0.004956396790 Rises=F Damp=F
 DIIS: error= 3.07D-04 at cycle   5 NSaved=   5.
 NSaved= 5 IEnMin= 5 EnMin= -2159.39212198444     IErMin= 5 ErrMin= 3.07D-04
 ErrMax= 3.07D-04  0.00D+00 EMaxC= 1.00D-01 BMatC= 2.57D-04 BMatP= 5.78D-03
 IDIUse=3 WtCom= 9.97D-01 WtEn= 3.07D-03
 Coeff-Com: -0.114D-01 0.257D-01 0.101D+00 0.251D+00 0.633D+00
 Coeff-En:   0.000D+00 0.000D+00 0.000D+00 0.000D+00 0.100D+01
 Coeff:     -0.113D-01 0.256D-01 0.101D+00 0.250D+00 0.635D+00
 Gap=     0.266 Goal=   None    Shift=    0.000
 RMSDP=1.30D-04 MaxDP=2.96D-02 DE=-4.96D-03 OVMax= 1.63D-03

 Cycle   6  Pass 1  IDiag  1:
 RMSU=  7.00D-05    CP:  9.05D-01  1.02D+00  8.78D-01  5.84D-01  7.51D-01
 E= -2159.39231536659     Delta-E=       -0.000193382158 Rises=F Damp=F
 DIIS: error= 6.10D-05 at cycle   6 NSaved=   6.
 NSaved= 6 IEnMin= 6 EnMin= -2159.39231536659     IErMin= 6 ErrMin= 6.10D-05
 ErrMax= 6.10D-05  0.00D+00 EMaxC= 1.00D-01 BMatC= 1.89D-05 BMatP= 2.57D-04
 IDIUse=1 WtCom= 1.00D+00 WtEn= 0.00D+00
 Coeff-Com: -0.370D-02 0.655D-02 0.325D-01 0.943D-01 0.310D+00 0.560D+00
 Coeff:     -0.370D-02 0.655D-02 0.325D-01 0.943D-01 0.310D+00 0.560D+00
 Gap=     0.266 Goal=   None    Shift=    0.000
 RMSDP=3.48D-05 MaxDP=1.07D-02 DE=-1.93D-04 OVMax= 4.23D-04

 Cycle   7  Pass 1  IDiag  1:
 RMSU=  1.49D-05    CP:  9.06D-01  1.02D+00  8.78D-01  6.00D-01  7.52D-01
                    CP:  7.46D-01
 E= -2159.39232925220     Delta-E=       -0.000013885603 Rises=F Damp=F
 DIIS: error= 1.92D-05 at cycle   7 NSaved=   7.
 NSaved= 7 IEnMin= 7 EnMin= -2159.39232925220     IErMin= 7 ErrMin= 1.92D-05
 ErrMax= 1.92D-05  0.00D+00 EMaxC= 1.00D-01 BMatC= 1.59D-06 BMatP= 1.89D-05
 IDIUse=1 WtCom= 1.00D+00 WtEn= 0.00D+00
 Coeff-Com: -0.102D-02 0.140D-02 0.917D-02 0.301D-01 0.111D+00 0.284D+00
 Coeff-Com:  0.565D+00
 Coeff:     -0.102D-02 0.140D-02 0.917D-02 0.301D-01 0.111D+00 0.284D+00
 Coeff:      0.565D+00
 Gap=     0.266 Goal=   None    Shift=    0.000
 RMSDP=8.66D-06 MaxDP=1.62D-03 DE=-1.39D-05 OVMax= 1.46D-04

 Cycle   8  Pass 1  IDiag  1:
 RMSU=  7.02D-06    CP:  9.06D-01  1.02D+00  8.78D-01  6.02D-01  7.60D-01
                    CP:  7.07D-01  8.15D-01
 E= -2159.39233029777     Delta-E=       -0.000001045573 Rises=F Damp=F
 DIIS: error= 5.60D-06 at cycle   8 NSaved=   8.
 NSaved= 8 IEnMin= 8 EnMin= -2159.39233029777     IErMin= 8 ErrMin= 5.60D-06
 ErrMax= 5.60D-06  0.00D+00 EMaxC= 1.00D-01 BMatC= 1.60D-07 BMatP= 1.59D-06
 IDIUse=1 WtCom= 1.00D+00 WtEn= 0.00D+00
 Coeff-Com:  0.556D-05-0.199D-03 0.140D-03 0.218D-02 0.118D-01 0.586D-01
 Coeff-Com:  0.275D+00 0.653D+00
 Coeff:      0.556D-05-0.199D-03 0.140D-03 0.218D-02 0.118D-01 0.586D-01
 Coeff:      0.275D+00 0.653D+00
 Gap=     0.266 Goal=   None    Shift=    0.000
 RMSDP=3.50D-06 MaxDP=6.53D-04 DE=-1.05D-06 OVMax= 3.97D-05

 Cycle   9  Pass 1  IDiag  1:
 RMSU=  2.19D-06    CP:  9.06D-01  1.02D+00  8.78D-01  6.01D-01  7.61D-01
                    CP:  7.22D-01  8.46D-01  8.21D-01
 E= -2159.39233041676     Delta-E=       -0.000000118994 Rises=F Damp=F
 DIIS: error= 1.66D-06 at cycle   9 NSaved=   9.
 NSaved= 9 IEnMin= 9 EnMin= -2159.39233041676     IErMin= 9 ErrMin= 1.66D-06
 ErrMax= 1.66D-06  0.00D+00 EMaxC= 1.00D-01 BMatC= 1.09D-08 BMatP= 1.60D-07
 IDIUse=1 WtCom= 1.00D+00 WtEn= 0.00D+00
 Coeff-Com:  0.654D-04-0.175D-03-0.550D-03-0.100D-02-0.240D-02 0.601D-02
 Coeff-Com:  0.832D-01 0.294D+00 0.620D+00
 Coeff:      0.654D-04-0.175D-03-0.550D-03-0.100D-02-0.240D-02 0.601D-02
 Coeff:      0.832D-01 0.294D+00 0.620D+00
 Gap=     0.266 Goal=   None    Shift=    0.000
 RMSDP=7.55D-07 MaxDP=2.20D-04 DE=-1.19D-07 OVMax= 1.06D-05

 Cycle  10  Pass 1  IDiag  1:
 RMSU=  4.48D-07    CP:  9.06D-01  1.02D+00  8.78D-01  6.01D-01  7.60D-01
                    CP:  7.25D-01  8.59D-01  8.33D-01  7.99D-01
 E= -2159.39233042503     Delta-E=       -0.000000008271 Rises=F Damp=F
 DIIS: error= 5.19D-07 at cycle  10 NSaved=  10.
 NSaved=10 IEnMin=10 EnMin= -2159.39233042503     IErMin=10 ErrMin= 5.19D-07
 ErrMax= 5.19D-07  0.00D+00 EMaxC= 1.00D-01 BMatC= 1.18D-09 BMatP= 1.09D-08
 IDIUse=1 WtCom= 1.00D+00 WtEn= 0.00D+00
 Coeff-Com:  0.279D-04-0.639D-04-0.269D-03-0.603D-03-0.194D-02-0.129D-02
 Coeff-Com:  0.197D-01 0.960D-01 0.310D+00 0.578D+00
 Coeff:      0.279D-04-0.639D-04-0.269D-03-0.603D-03-0.194D-02-0.129D-02
 Coeff:      0.197D-01 0.960D-01 0.310D+00 0.578D+00
 Gap=     0.266 Goal=   None    Shift=    0.000
 RMSDP=2.09D-07 MaxDP=3.91D-05 DE=-8.27D-09 OVMax= 2.83D-06

 Cycle  11  Pass 1  IDiag  1:
 RMSU=  1.30D-07    CP:  9.06D-01  1.02D+00  8.78D-01  6.01D-01  7.60D-01
                    CP:  7.25D-01  8.61D-01  8.46D-01  7.96D-01  7.68D-01
 E= -2159.39233042566     Delta-E=       -0.000000000630 Rises=F Damp=F
 DIIS: error= 1.62D-07 at cycle  11 NSaved=  11.
 NSaved=11 IEnMin=11 EnMin= -2159.39233042566     IErMin=11 ErrMin= 1.62D-07
 ErrMax= 1.62D-07  0.00D+00 EMaxC= 1.00D-01 BMatC= 9.53D-11 BMatP= 1.18D-09
 IDIUse=1 WtCom= 1.00D+00 WtEn= 0.00D+00
 Coeff-Com:  0.767D-05-0.163D-04-0.888D-04-0.209D-03-0.729D-03-0.988D-03
 Coeff-Com:  0.306D-02 0.229D-01 0.997D-01 0.282D+00 0.594D+00
 Coeff:      0.767D-05-0.163D-04-0.888D-04-0.209D-03-0.729D-03-0.988D-03
 Coeff:      0.306D-02 0.229D-01 0.997D-01 0.282D+00 0.594D+00
 Gap=     0.266 Goal=   None    Shift=    0.000
 RMSDP=6.50D-08 MaxDP=1.69D-05 DE=-6.30D-10 OVMax= 9.31D-07

 Cycle  12  Pass 1  IDiag  1:
 RMSU=  4.06D-08    CP:  9.06D-01  1.02D+00  8.78D-01  6.01D-01  7.60D-01
                    CP:  7.24D-01  8.61D-01  8.48D-01  8.03D-01  7.79D-01
                    CP:  7.77D-01
 E= -2159.39233042570     Delta-E=       -0.000000000039 Rises=F Damp=F
 DIIS: error= 4.76D-08 at cycle  12 NSaved=  12.
 NSaved=12 IEnMin=12 EnMin= -2159.39233042570     IErMin=12 ErrMin= 4.76D-08
 ErrMax= 4.76D-08  0.00D+00 EMaxC= 1.00D-01 BMatC= 7.87D-12 BMatP= 9.53D-11
 IDIUse=1 WtCom= 1.00D+00 WtEn= 0.00D+00
 Coeff-Com:  0.215D-06-0.122D-06-0.115D-04-0.294D-04-0.120D-03-0.323D-03
 Coeff-Com: -0.930D-03-0.756D-03 0.102D-01 0.637D-01 0.269D+00 0.660D+00
 Coeff:      0.215D-06-0.122D-06-0.115D-04-0.294D-04-0.120D-03-0.323D-03
 Coeff:     -0.930D-03-0.756D-03 0.102D-01 0.637D-01 0.269D+00 0.660D+00
 Gap=     0.266 Goal=   None    Shift=    0.000
 RMSDP=2.22D-08 MaxDP=5.06D-06 DE=-3.91D-11 OVMax= 2.59D-07

 Cycle  13  Pass 1  IDiag  1:
 RMSU=  1.28D-08    CP:  9.06D-01  1.02D+00  8.78D-01  6.01D-01  7.60D-01
                    CP:  7.24D-01  8.61D-01  8.48D-01  8.08D-01  7.76D-01
                    CP:  7.89D-01  7.93D-01
 E= -2159.39233042568     Delta-E=        0.000000000024 Rises=F Damp=F
 DIIS: error= 1.37D-08 at cycle  13 NSaved=  13.
 NSaved=13 IEnMin=12 EnMin= -2159.39233042570     IErMin=13 ErrMin= 1.37D-08
 ErrMax= 1.37D-08  0.00D+00 EMaxC= 1.00D-01 BMatC= 5.67D-13 BMatP= 7.87D-12
 IDIUse=1 WtCom= 1.00D+00 WtEn= 0.00D+00
 Coeff-Com: -0.385D-06 0.966D-06 0.582D-06 0.590D-06-0.447D-05-0.680D-04
 Coeff-Com: -0.570D-03-0.180D-02-0.219D-02 0.899D-02 0.770D-01 0.293D+00
 Coeff-Com:  0.626D+00
 Coeff:     -0.385D-06 0.966D-06 0.582D-06 0.590D-06-0.447D-05-0.680D-04
 Coeff:     -0.570D-03-0.180D-02-0.219D-02 0.899D-02 0.770D-01 0.293D+00
 Coeff:      0.626D+00
 Gap=     0.266 Goal=   None    Shift=    0.000
 RMSDP=6.77D-09 MaxDP=1.93D-06 DE= 2.36D-11 OVMax= 1.00D-07

 Cycle  14  Pass 1  IDiag  1:
 RMSU=  3.82D-09    CP:  9.06D-01  1.02D+00  8.78D-01  6.01D-01  7.60D-01
[...]
 00001859,-0.00000466,0.00005243,0.00002050,-0.00012763,-0.00021699,0.0
 0065321,0.00016195,0.00005329,-0.00014088,-0.00002169,-0.00003123,0.00
 005342,-0.00000324,-0.00000242,-0.00000636,0.00000205,-0.00000553,0.00
 000048,-0.00001413,0.00002017,-0.00005286,0.00000217,0.00000556,0.0000
 4799,-0.00137645,0.00078347,0.00091020,-0.17023710,-0.23690530,-0.0555
 1059,0.00018493,0.00052686,-0.00050647,0.00000489,0.00002675,0.0000029
 2,-0.00001504,-0.00001696,-0.00007783,0.00002459,-0.00000299,-0.000003
 34,0.00001347,-0.00000381,0.00000907,0.00000327,-0.00000078,-0.0000041
 2,-0.00000370,-0.00000348,0.00000086,0.00000245,0.00000953,0.00000398,
 -0.00000709,-0.00001563,-0.00001551,-0.00005640,0.00002189,-0.00005515
 ,-0.00011086,0.00004645,0.00001532,-0.00014166,-0.00018919,0.00006858,
 -0.00000325,0.00000717,-0.00000981,-0.00007949,0.00002219,0.00003979,-
 0.00003017,-0.00011884,0.00006885,0.00020149,-0.00039774,-0.00002649,0
 .00003726,0.00001824,-0.00004747,-0.00000386,0.00001567,-0.00000083,-0
 .00000211,0.00000401,0.00000426,0.00000369,0.00000085,-0.00000459,0.00
 000975,-0.00005778,-0.00002091,0.00016047,0.00005519,0.00014812,0.0001
 0830,0.00097397,0.00145630,-0.00063816,0.00017673,-0.00050546,-0.00006
 284,0.00006964,0.00026221,0.00000403,0.00001050,-0.00007565,-0.0000121
 6,0.00000662,0.00003490,0.00000783,0.00000102,-0.00000513,-0.00001710,
 -0.00002082,-0.00000316,-0.00000459,0.00001216,0.00001675,-0.00000194,
 -0.00002819,0.00003056,0.00001653,0.00000133,0.00002579,-0.00000511,0.
 00001143,-0.00000745,-0.00000122,-0.00000622,-0.00001542,-0.00000275,0
 .00000081,0.00001013,-0.00000008,0.00000381,-0.00000234,-0.00000065,-0
 .00000229,0.00000659,-0.00000065,0.00000166,0.00000015,0.00000230,-0.0
 0000197,0.00000391,-0.00000085,-0.00002939,-0.00000688,-0.00000915,-0.
 00002366,-0.00004252,-0.00002073,-0.00001440,-0.00006407,-0.00034243,-
 0.00007505,-0.00073425,0.16872268,0.00009499,-0.00013401,0.00007151,-0
 .00021268,0.00023512,-0.00005040,0.00003731,-0.00000363,0.00004193,0.0
 0003670,0.00014664,0.00000670,0.00004242,0.00000638,-0.00002521,-0.000
 04793,0.00009319,-0.00003940,-0.00001258,0.00000112,0.00001751,0.00002
 523,-0.00003476,0.00000077,-0.00005759,-0.00005994,0.00001018,-0.00012
 062,-0.00015665,-0.00002229,-0.00005038,-0.00016526,-0.00000246,0.0002
 2143,-0.00024435,0.00005905,-0.00004397,0.00010385,-0.00014660,-0.0001
 0058,0.00016718,0.00020194,0.00014217,-0.00015051,-0.00010508,0.000248
 27,0.00024287,-0.00025942,-0.00024814,-0.00016262,0.00002242,0.0003602
 2,0.00015029,0.00009728,-0.00016778,-0.00006498,0.00009968,-0.00002790
 ,0.00003926,-0.00006970,0.00008023,-0.00007765,0.00005102,0.00018273,0
 .00048218,-0.00023426,0.00132028,-0.00039877,0.00019092,-0.00461674,-0
 .00605294,-0.00367243,0.00176817,0.00416772,0.00366503,-0.00033273,-0.
 00013516,-0.00015031,-0.00030889,-0.00092613,-0.00033920,-0.00033449,0
 .00076892,-0.00031991,-0.00009384,-0.00005554,-0.00000501,0.00015079,-
 0.00006877,0.00010598,-0.00000874,-0.00051104,0.00019780,0.00008869,0.
 00003768,0.00011658,-0.00001235,-0.00001059,0.00002772,-0.00000356,0.0
 0002260,-0.00000988,0.00000442,-0.00000799,0.00000349,-0.00000892,0.00
 001397,-0.00002006,0.00001675,-0.00009037,0.00001816,-0.00022691,-0.00
 100245,-0.00210187,-0.22773339,-0.33913963,-0.08963281,0.00030673,-0.0
 0001168,0.00045033,0.00001510,-0.00001812,-0.00000057,-0.00000333,0.00
 004298,0.00000439,-0.00001187,-0.00001721,0.00000955,-0.00000364,-0.00
 000471,0.00000792,0.00000961,-0.00001002,-0.00000080,0.00000684,-0.000
 00278,0.00000669,-0.00000460,-0.00000368,-0.00000701,-0.00002533,0.000
 02468,-0.00001726,0.00005321,0.00003407,0.00001826,0.00008969,0.000046
 57,-0.00000606,-0.00004387,0.00017845,-0.00003595,0.00004100,-0.000014
 53,0.00001832,0.00003186,0.00000881,-0.00003883,-0.00009380,0.00004619
 ,0.00007787,-0.00032935,-0.00018613,0.00011782,0.00000071,0.00001355,0
 .00000208,0.00001751,0.00000147,-0.00002207,-0.00000496,-0.00000611,0.
 00000437,0.00001759,-0.00000388,0.00000830,-0.00006033,0.00007588,-0.0
 0000062,0.00008195,0.00007733,0.00002074,-0.00050704,-0.00002564,0.000
 89158,-0.00010902,-0.00024267,-0.00004346,0.00002315,0.00001376,-0.000
 05405,0.00005517,-0.00008682,0.00001537,0.00003215,0.00002203,0.000059
 49,-0.00002467,-0.00002988,-0.00002611,-0.00004050,-0.00001426,-0.0000
 2741,0.00001150,0.00000259,-0.00001866,-0.00000326,-0.00001744,0.00002
 513,0.00000037,-0.00000236,0.00000369,0.00000965,-0.00000333,0.0000005
 2,-0.00000043,0.00000450,-0.00000014,-0.00000187,-0.00000433,-0.000005
 92,-0.00001059,-0.00000772,-0.00000686,0.00000202,-0.00000015,0.000003
 64,0.00000754,-0.00001039,0.00000904,0.00000048,0.00000250,-0.00000203
 ,-0.00003630,0.00015294,-0.00006144,-0.00000234,0.00004698,0.00000800,
 0.00002818,0.00006575,0.00002186,-0.00001883,-0.00051538,-0.00024843,0
 .23178497,0.34468436,0.00001742,-0.00002561,-0.00004741,-0.00004368,0.
 00005306,0.00002687,-0.00002132,-0.00000374,0.00027099,0.00001437,0.00
 003689,-0.00001363,-0.00009009,-0.00002009,0.00007420,-0.00000345,-0.0
 0000060,-0.00000469,-0.00004629,0.00001460,0.00003346,0.00006727,0.000
 00128,-0.00003037,0.00013818,-0.00000317,-0.00009964,0.00000606,-0.000
 04292,-0.00006529,-0.00012596,-0.00005398,-0.00023172,0.00006812,-0.00
 003034,-0.00001779,-0.00002453,-0.00004375,-0.00001257,-0.00026486,0.0
 0034287,0.00012242,0.00003693,-0.00023935,-0.00022156,0.00026267,-0.00
 018631,0.00010652,-0.00036593,-0.00033958,-0.00010079,0.00016996,0.000
 08488,-0.00002099,-0.00009072,-0.00003347,0.00004452,-0.00000009,-0.00
 002564,-0.00000086,0.00003138,0.00002486,-0.00001506,0.00060941,0.0009
 5059,0.00069685,0.00229859,0.00014207,-0.00829020,-0.02562074,-0.03662
 302,-0.01537022,-0.00360740,-0.00228693,-0.00214757,-0.00044100,-0.001
 22257,-0.00089473,0.00062143,0.00123144,0.00055181,-0.00175519,-0.0024
 1149,0.00041899,0.00047505,0.00008309,-0.00074923,-0.00007387,0.000169
 47,0.00005418,0.00019992,0.00006305,0.00110770,0.00018257,0.00009249,-
 0.00047538,-0.00004272,-0.00003058,0.00007578,0.00000498,-0.00003551,-
 0.00000441,-0.00002067,0.00000234,0.00000665,0.00000215,0.00002426,-0.
 00003879,0.00007263,0.00004095,0.00000682,0.00058839,-0.00086878,0.001
 28852,-0.02674050,-0.05198157,-0.05864511,0.00067115,0.00068176,-0.001
 51201,0.00001552,0.00000943,-0.00000906,0.00002086,0.00000268,-0.00003
 260,0.00001299,-0.00000840,-0.00000390,0.00001592,-0.00000074,-0.00000
 993,0.00000702,0.00000512,-0.00000594,-0.00000153,-0.00000478,0.000000
 29,0.00000737,0.00000310,-0.00000707,-0.00001140,-0.00000778,0.0000010
 2,-0.00005925,0.00002189,0.00003991,0.00002840,0.00001347,0.00005595,0
 .00008616,0.00008222,0.00007711,0.00002175,0.00000141,0.00000305,0.000
 12119,-0.00000191,-0.00005987,0.00007788,0.00016812,0.00008749,-0.0005
 3255,0.00011054,-0.00002845,-0.00000253,0.00005284,0.00002967,0.000002
 71,0.00001079,-0.00001148,-0.00000465,-0.00000063,-0.00000001,0.000011
 38,-0.00000016,0.00000017,-0.00001861,0.00000150,0.00000807,0.00008033
 ,0.00029552,0.00018416,0.00056386,-0.00050196,0.00032037,0.00025042,0.
 00033043,0.00000410,0.00005319,-0.00000709,0.00004791,0.00000073,0.000
 02273,-0.00000545,-0.00018209,-0.00017679,-0.00011220,0.00004960,0.000
 04064,0.00002525,-0.00004037,-0.00000748,0.00000126,-0.00002141,-0.000
 00849,0.00002949,-0.00001602,-0.00001836,0.00002499,0.00003224,0.00000
 860,0.00004727,0.00000201,0.00001260,-0.00001568,-0.00001454,-0.000019
 66,-0.00003356,0.00000377,0.00000593,0.00001565,0.00001987,0.00001346,
 -0.00000126,0.00000595,-0.00000844,0.00000610,-0.00002049,0.00000587,0
 .00000183,0.00000435,-0.00000193,0.00001395,-0.00001850,-0.00012429,0.
 00002519,-0.00009841,0.00001589,0.00005739,-0.00016759,-0.00005133,-0.
 00007730,0.00032711,0.00089862,0.00132158,0.05154887,0.09132300,0.0791
 9853,0.00022993,-0.00011036,0.00029324,-0.00040080,0.00033822,-0.00026
 185,-0.00005679,-0.00001875,-0.00021618,-0.00001872,0.00012791,-0.0000
 0087,0.00006293,0.00000175,-0.00007980,-0.00011434,0.00013188,-0.00004
 589,0.00002544,-0.00003838,-0.00005497,-0.00002368,-0.00000093,0.00008
 102,-0.00006978,-0.00004032,0.00012798,-0.00000449,-0.00014271,0.00003
 380,0.00025214,-0.00019985,0.00024271,0.00093374,-0.00012865,0.0003118
 9,-0.00136088,-0.00050939,0.00109974,-0.00438044,-0.00033990,-0.005093
 90,0.00116324,-0.00010701,-0.00033127,-0.03067212,-0.02046675,0.007683
 98,0.00158884,-0.00053983,-0.00175085,0.00043577,0.00065336,0.00120808
 ,-0.00035943,-0.00012471,0.00025016,-0.00008648,0.00003606,-0.00014236
 ,0.00004107,-0.00007201,0.00018587,-0.00089085,-0.00081819,0.00066085,
 0.00054528,0.00044127,-0.00033556,-0.00019985,0.00090910,0.00210995,0.
 00017181,-0.00022292,-0.00054257,0.00027455,0.00037501,0.00027907,-0.0
 0020800,-0.00027486,0.00003689,-0.00018799,-0.00002964,-0.00011893,0.0
 0017003,0.00001650,-0.00007336,-0.00021203,-0.00004583,0.00014308,-0.0
 0007986,0.00002765,-0.00027651,-0.00002905,-0.00001454,0.00008243,0.00
 001102,0.00000967,-0.00001899,0.00000151,0.00001182,0.00000203,0.00001
 278,-0.00000316,-0.00000382,-0.00001413,0.00000701,-0.00002694,-0.0000
 3813,-0.00002234,0.00004274,-0.00013942,-0.00003686,-0.00011799,-0.003
 12891,0.00021310,-0.00226599,-0.24584759,-0.19268967,0.09411923,0.0000
 5063,-0.00003419,-0.00000652,-0.00001251,0.00004539,-0.00001657,0.0000
 0032,-0.00000984,0.00000826,-0.00000159,-0.00001270,0.00002583,0.00001
 395,-0.00001673,-0.00000080,0.00000193,-0.00000249,0.00001446,-0.00000
 936,0.00000562,0.00000149,-0.00000972,0.00001171,-0.00004921,0.0000210
 9,0.00002787,-0.00004554,-0.00000583,0.00007829,-0.00001279,-0.0003387
 7,0.00026742,-0.00008068,-0.00021359,-0.00004461,-0.00036094,0.0002998
 3,0.00006837,-0.00016539,-0.00066317,-0.00004392,0.00065401,0.00168168
 ,-0.00012304,0.00195270,-0.00003180,0.00004770,0.00001138,0.00001221,-
 0.00002926,-0.00002739,0.00000328,-0.00000149,0.00000838,0.00003604,-0
 .00001165,0.00002225,-0.00004890,-0.00000235,-0.00006100,-0.00018442,0
 .00003832,-0.00024572,-0.00004783,-0.00011120,0.00016896,-0.00007590,0
 .00003591,-0.00000657,-0.00003886,-0.00001271,-0.00000503,-0.00004260,
 0.00002487,0.00010865,-0.00002592,-0.00002135,0.00001877,0.00001436,-0
 .00002215,-0.00004868,0.00010312,0.00007057,-0.00018665,0.00000291,0.0
 0000858,-0.00000237,0.00000228,-0.00000215,-0.00000892,-0.00001041,-0.
 00000414,-0.00000827,-0.00000298,0.00000336,0.00000296,0.00000861,0.00
 000240,0.00000695,-0.00000529,-0.00000205,0.00000139,-0.00000759,-0.00
 000446,-0.00000236,-0.00000467,0.00000203,0.00000303,0.00000939,-0.000
 00342,0.00000081,0.00000061,0.00000323,-0.00001057,0.00002026,0.000058
 61,-0.00003194,0.00006738,-0.00001127,-0.00007606,0.00007950,0.0000160
 8,0.00001166,0.00000004,-0.00004573,-0.00000560,0.00004693,-0.00134110
 ,0.00067885,0.28190906,0.00017013,-0.00025778,0.00020271,-0.00043487,0
 .00049567,-0.00020159,0.00018297,0.00002657,-0.00000920,-0.00000327,0.
 00011194,0.00001792,0.00011244,0.00003156,-0.00006527,-0.00008076,0.00
 016933,-0.00006599,0.00003391,-0.00002496,-0.00002062,-0.00003669,-0.0
 0004109,0.00005076,-0.00015158,-0.00005433,0.00007283,-0.00011495,-0.0
 0015955,-0.00000325,-0.00017392,-0.00032076,0.00006500,0.00031232,-0.0
 0072577,0.00022798,0.00067746,0.00075040,-0.00083720,0.00236374,0.0003
 9685,0.00140611,0.00085660,-0.00045371,0.00037528,-0.00135183,-0.00004
 722,-0.00085101,-0.00161006,-0.00129196,-0.00202770,0.00091766,0.00050
 251,0.00108139,-0.00034407,-0.00028732,0.00007061,-0.00010242,0.000212
 72,-0.00027502,0.00005588,-0.00027472,0.00028471,0.00008125,-0.0014349
 9,0.00232042,0.00032105,0.00243764,-0.00137287,-0.00009092,0.00423260,
 0.00485688,0.00041968,-0.00067218,-0.00153699,0.00042155,0.00096705,0.
 00083632,-0.00031660,-0.00069630,0.00008672,-0.00026850,-0.00015592,-0
 .00003715,0.00026886,0.00012503,-0.00017350,-0.00027706,-0.00019265,0.
 00016065,-0.00009202,0.00012053,-0.00085122,-0.00014753,-0.00005365,0.
 00029218,0.00003031,0.00003046,-0.00006073,0.00000061,0.00002272,0.000
 00628,0.00001718,0.00000197,-0.00000663,-0.00000369,-0.00001024,0.0000
 1923,-0.00005418,-0.00005182,0.00000320,-0.00001548,0.00001774,-0.0005
 0834,-0.00053692,-0.00384529,-0.00610578,-0.21777884,-0.19991783,0.110
 70213,0.00000310,-0.00002968,0.00001892,-0.00000093,0.00000571,0.00006
 272,-0.00002305,0.00000057,0.00001208,-0.00001798,-0.00001189,0.000012
 61,0.00001285,-0.00001630,0.00000394,0.00000729,-0.00000105,0.00001502
 ,-0.00001734,-0.00000504,-0.00000586,-0.00000890,0.00004776,-0.0000487
 9,0.00006476,0.00001168,0.00000046,0.00008158,0.00002823,-0.00000306,0
 .00008908,0.00050423,-0.00015371,0.00038036,-0.00005733,0.00028314,-0.
 00003688,0.00004624,0.00001069,-0.00087976,0.00089322,0.00031766,0.002
 24306,0.00110291,0.00084847,-0.00017106,-0.00033856,0.00000695,0.00002
 082,-0.00000777,-0.00002850,0.00000390,-0.00000890,0.00002679,0.000019
 03,-0.00002788,0.00004884,-0.00008057,0.00013640,-0.00003750,0.0001153
 1,-0.00016706,0.00004634,0.00037056,-0.00016563,-0.00093823,-0.0000412
 1,-0.00007420,0.00010604,-0.00004794,-0.00002178,-0.00006518,0.0000249
 5,0.00002850,-0.00000271,-0.00006444,-0.00005925,-0.00000697,-0.000022
 39,-0.00006934,-0.00007329,0.00017329,0.00015574,-0.00024957,0.0000129
 4,0.00000268,-0.00001215,0.00000640,0.00001314,-0.00002814,-0.00002568
 ,-0.00000650,-0.00003238,0.00000095,-0.00000639,0.00001045,0.00001365,
 0.00001113,0.00002663,-0.00000391,-0.00000382,-0.00001063,-0.00001308,
 -0.00001255,-0.00000087,-0.00000584,0.00000624,-0.00000259,0.00001429,
 -0.00000791,0.00000079,-0.00000216,0.00000758,-0.00001602,0.00002606,0
 .00013261,-0.00003497,0.00008648,0.00001087,-0.00004320,0.00013036,0.0
 0003347,0.00006432,-0.00007669,-0.00014545,0.00001805,-0.00041364,-0.0
 0133140,-0.00003711,0.21479496,0.19971352,-0.00009642,0.00006909,-0.00
 024021,0.00026813,-0.00021155,0.00021502,-0.00007653,-0.00000938,0.000
 28052,0.00001494,-0.00003411,-0.00001160,-0.00012010,-0.00002132,0.000
 09951,0.00004389,-0.00008252,0.00002386,-0.00008187,0.00004627,0.00007
 433,0.00011414,-0.00001342,-0.00007736,0.00016744,0.00000624,-0.000143
 57,0.00003840,0.00004995,-0.00005911,-0.00009568,0.00011912,-0.0002970
 5,-0.00013299,0.00029916,-0.00025599,-0.00085605,-0.00048591,0.0012790
 2,-0.00252123,-0.00017954,-0.00425715,0.00021589,0.00000987,0.00039332
 ,-0.02533275,-0.01986814,0.00843157,-0.00544324,-0.00211521,0.00096169
 ,0.00072377,-0.00022070,-0.00149456,-0.00007427,0.00023886,0.00026735,
 0.00014535,-0.00014418,0.00008790,0.00010963,0.00014161,-0.00021660,0.
 00197253,0.00167696,0.00006369,-0.00090320,0.00016608,-0.00090145,0.00
 016072,-0.00129962,-0.00463725,-0.00026019,0.00059597,0.00079477,-0.00
 018260,-0.00025935,-0.00070272,0.00014085,0.00000500,0.00032225,0.0002
 8082,0.00022508,-0.00030503,-0.00041405,-0.00008048,0.00009976,0.00050
 388,0.00005749,-0.00004202,0.00008811,-0.00031949,0.00080447,0.0001434
 0,0.00009096,-0.00033676,-0.00002516,-0.00001964,0.00006161,-0.0000001
 5,-0.00000943,-0.00001670,-0.00001810,-0.00000405,0.00001457,-0.000009
 34,0.00002685,-0.00006068,0.00010683,-0.00005987,0.00001569,-0.0001251
 6,-0.00048003,0.00039124,-0.00055186,-0.00299801,0.00016086,0.13288201
 ,0.13193393,-0.10665003,0.00001856,0.00002114,-0.00002437,0.00002493,0
 .00000063,-0.00004726,0.00001846,-0.00000602,-0.00000807,0.00001854,0.
 00000561,-0.00001958,0.00000042,0.00001096,-0.00000773,0.00000020,-0.0
 0000654,-0.00001085,0.00001495,0.00000260,-0.00000816,-0.00003752,-0.0
 0000981,0.00002802,-0.00005184,0.00001078,0.00004070,-0.00001368,-0.00
 001944,0.00004530,0.00016477,-0.00016365,0.00015693,-0.00033486,0.0000
 0017,-0.00033451,0.00019336,-0.00016238,-0.00007279,0.00008929,0.00082
 730,-0.00015221,-0.00156713,0.00078273,0.00015413,0.00007193,0.0001623
 0,0.00003672,0.00002852,0.00004062,-0.00003554,-0.00002447,-0.00001316
 ,-0.00004126,0.00003929,0.00003055,0.00000783,-0.00003021,0.00001837,0
 .00007359,0.00000964,-0.00010784,0.00009911,-0.00008888,0.00018559,0.0
 0041232,0.00003905,-0.00000328,-0.00003942,0.00002540,-0.00000144,0.00
 003982,0.00001968,-0.00002154,-0.00001902,0.00008971,0.00003728,0.0000
 5841,-0.00001982,-0.00002859,-0.00000692,-0.00028123,-0.00015847,0.000
 21468,-0.00000495,-0.00000070,0.00001001,-0.00001291,-0.00002587,0.000
 03541,0.00001983,0.00000109,0.00003656,0.00000516,0.00000499,-0.000013
 35,-0.00001567,-0.00000852,-0.00004134,0.00000401,0.00000239,0.0000115
 6,0.00000573,0.00000849,-0.00000945,0.00001110,-0.00001181,0.00000935,
 -0.00001374,-0.00000274,0.00001083,0.00000292,-0.00000322,0.00002056,-
 0.00009273,0.00005680,-0.00003580,-0.00013532,0.00004363,0.00009425,-0
 .00015289,0.00002255,-0.00006862,0.00003568,0.00015828,0.00005408,0.00
 059828,-0.00028365,0.00290978,-0.09947133,-0.10823875,0.10229915\\0.00
 000142,0.00000151,0.00000693,-0.00000420,-0.00000539,-0.00000879,0.000
 00842,-0.00000343,0.00000633,0.00000243,0.00000394,0.00000648,0.000002
 41,0.00000074,-0.00000273,-0.00000484,-0.00000618,-0.00000086,0.000011
 20,0.00000118,-0.00000078,-0.00000635,0.00000125,-0.00000245,-0.000004
 55,0.00000385,0.00000813,-0.00000263,-0.00000362,-0.00000060,-0.000000
 90,-0.00000205,-0.00000343,-0.00000100,0.00000170,0.00000703,0.0000004
 5,-0.00000524,-0.00000506,-0.00000648,-0.00000090,0.00000492,0.0000054
 6,-0.00000019,-0.00000579,0.00000912,-0.00000027,-0.00000237,0.0000145
 1,0.00000565,-0.00000451,-0.00000649,-0.00000637,-0.00000086,0.0000083
 3,-0.00000545,-0.00000661,-0.00000047,0.00000096,-0.00000201,0.0000007
 7,-0.00000606,-0.00000058,-0.00000323,0.00000014,-0.00000455,-0.000001
 39,0.00000588,0.00001633,-0.00000127,-0.00000503,0.00000301,0.00000254
 ,0.00000616,-0.00000507,0.00001228,0.00001185,0.00000722,-0.00000504,-
 0.00000554,-0.00000119,0.00001084,0.00000674,-0.00000518,-0.00000573,-
 0.00000027,-0.00000534,0.00000644,0.00000127,-0.00000311,-0.00000329,-
 0.00000251,-0.00000523,-0.00000347,-0.00000321,0.00000879,-0.00000483,
 0.00000637,0.00000184,-0.00000225,0.00000634,-0.00000085,0.00000238,0.
 00000071,-0.00000187,0.00000127,-0.00000364,0.00001216,-0.00000298,0.0
 0000296,-0.00001660,-0.00000438,-0.00000423,0.00000383,0.00000506,-0.0
 0000354,-0.00000401,-0.00000065,-0.00000376,-0.00000444,0.00000213,-0.
 00000317,0.00000300,-0.00000069,-0.00000395,0.00000083,-0.00000052,-0.
 00000384,0.00000109,-0.00000031,-0.00000163,0.00000526,0.00000081,-0.0
 0000449,-0.00000072,-0.00000095,0.00000164,0.00000594,-0.00000197,-0.0
 0000112,0.00000217,0.00000093,-0.00000150,0.00000600,-0.00000174,-0.00
 000219,0.00000190,0.00000033,-0.00000451,0.00000503,-0.00000312,-0.000
 00534,-0.00000003,0.00000381,0.00000193,0.00000204,0.00000572,-0.00000
 413,-0.00000226,0.00000137,-0.00000686,-0.00000063,0.00000373,-0.00000
 349,0.00000210,0.00000128,-0.00000086,-0.00000152,0.00000189,-0.000000
 07,-0.00000343,0.00000227,-0.00000061,-0.00000344,0.00000169,-0.000003
 15,-0.00000246,0.00000202,0.00000118,-0.00000026,0.00000025,-0.0000013
 8,-0.00000482,-0.00000023,-0.00000054,-0.00000372,-0.00000326,-0.00000
 110,0.00000155,-0.00000200,0.00000015,-0.00000408,-0.00000076,0.000003
 75,-0.00000426,0.00000022,0.00000161,-0.00000237,0.00000223,0.00000255
 ,-0.00000410,-0.00000444,0.00000145,0.00000136,-0.00000016,0.00000538,
 -0.00000181,-0.00000326,0.00000554,-0.00000066,-0.00000115,0.00000395,
 0.00000157,-0.00000629,0.00000190,0.00000044,-0.00000206,0.00000271,-0
 .00000298,-0.00000630,0.00000264,-0.00000079,0.00000187,0.00000331,-0.
 00000383,-0.00000145,0.00000408,-0.00000001,-0.00000562,0.00000568,-0.
 00000025,-0.00000178,0.00000225,0.00000586,-0.00000605,0.00000123,0.00
 000039,-0.00000057,0.00000186,0.00000935,-0.00000539,0.00000455,0.0000
 0807,-0.00000076,0.00000106,-0.00000282,-0.00000017,0.00000070,-0.0000
 0043,-0.00000043,0.00000048,-0.00000039\\\@


 WOE UNTO THEM THAT CALL EVIL GOOD, AND GOOD EVIL      
 Job cpu time:      19 days 19 hours 47 minutes 46.9 seconds.
 File lengths (MBytes):  RWF=  17318 Int=      0 D2E=      0 Chk=     97 Scr=      1
 Normal termination of Gaussian 09 at Fri Mar 25 08:13:37 2016.
